 Q-Chem 5.4, Q-Chem, Inc., Pleasanton, CA (2021)
 Q-Chem 5.4.0 for Intel X86 EM64T Linux

User input:
--------------------------------------------------------------
$molecule
0 1
C	        3.3042000000        -0.3684680000         0.0252680000
C	        2.0927110000         0.6488360000         0.2997130000
H	        1.1770690000         1.3996310000         0.4970310000
C	        4.2298570000        -1.1423380000        -0.1801670000
H	        4.2428250000        -1.9442470000         0.5637110000
H	        5.1919520000        -0.6240800000        -0.1317760000
H	        4.1455940000        -1.6025120000        -1.1689890000
H	       -0.3820270000         3.1368500000        -0.1256620000
O	       -0.4860440000         2.2923080000         0.3231290000
C	       -1.2836810000         1.4224860000        -0.4964050000
C	       -1.6050370000         0.1703110000         0.3047000000
C	       -2.4413690000        -0.8406240000        -0.4886700000
C	       -2.7622640000        -2.1040760000         0.3161280000
H	       -0.7325990000         1.1563360000        -1.4087710000
H	       -2.2103900000         1.9298260000        -0.7950950000
H	       -0.6658430000        -0.2952270000         0.6220900000
H	       -2.1363580000         0.4645300000         1.2168550000
H	       -1.9043390000        -1.1186390000        -1.4036860000
H	       -3.3765290000        -0.3681970000        -0.8142640000
H	       -1.8460430000        -2.6159220000         0.6261390000
H	       -3.3278750000        -1.8621560000         1.2213900000
H	       -3.3571800000        -2.8101730000        -0.2696650000
$end
$rem
jobtype polarizability
method tpss
basis 6-311++g**
thresh 14
scf_convergence 9
scf_algorithm diis
max_scf_cycles 200
gui 2
set_iter 30
RPA False
mem_total 40000
mem_static 2000
n_frozen_virtual 0
mom_start False
skip_scfman False
scf_guess_mix False
symmetry False
sym_ignore True
sym_tol 5
dft_d d3
xc_smart_grid True
xc_grid 000099000590
$end

--------------------------------------------------------------

             Standard Nuclear Orientation (Angstroms)
    I     Atom           X                Y                Z
 ----------------------------------------------------------------
    1      C       3.3042000000    -0.3684680000     0.0252680000
    2      C       2.0927110000     0.6488360000     0.2997130000
    3      H       1.1770690000     1.3996310000     0.4970310000
    4      C       4.2298570000    -1.1423380000    -0.1801670000
    5      H       4.2428250000    -1.9442470000     0.5637110000
    6      H       5.1919520000    -0.6240800000    -0.1317760000
    7      H       4.1455940000    -1.6025120000    -1.1689890000
    8      H      -0.3820270000     3.1368500000    -0.1256620000
    9      O      -0.4860440000     2.2923080000     0.3231290000
   10      C      -1.2836810000     1.4224860000    -0.4964050000
   11      C      -1.6050370000     0.1703110000     0.3047000000
   12      C      -2.4413690000    -0.8406240000    -0.4886700000
   13      C      -2.7622640000    -2.1040760000     0.3161280000
   14      H      -0.7325990000     1.1563360000    -1.4087710000
   15      H      -2.2103900000     1.9298260000    -0.7950950000
   16      H      -0.6658430000    -0.2952270000     0.6220900000
   17      H      -2.1363580000     0.4645300000     1.2168550000
   18      H      -1.9043390000    -1.1186390000    -1.4036860000
   19      H      -3.3765290000    -0.3681970000    -0.8142640000
   20      H      -1.8460430000    -2.6159220000     0.6261390000
   21      H      -3.3278750000    -1.8621560000     1.2213900000
   22      H      -3.3571800000    -2.8101730000    -0.2696650000
 ----------------------------------------------------------------

   18    -350.2881695976      9.46e-10  Convergence criterion met
 Total energy in the final basis set =     -350.2881695976

                    Orbital Energies (a.u.)
 --------------------------------------------------------------

 Alpha MOs
 -- Occupied --
-18.8999 -10.0374 -10.0263 -10.0235 -10.0003  -9.9845  -9.9795  -9.9745
 -0.9722  -0.7761  -0.7404  -0.6714  -0.5831  -0.5677  -0.5375  -0.4881
 -0.4780  -0.4436  -0.4240  -0.4239  -0.4041  -0.3952  -0.3836  -0.3646
 -0.3324  -0.3255  -0.3023  -0.2960  -0.2936  -0.2503  -0.1762  -0.1760

          Ground-State Mulliken Net Atomic Charges

     Atom                 Charge (a.u.)
  ----------------------------------------
      1 C                     0.059779
      2 C                    -1.250807
      3 H                     0.363855
      4 C                     0.251251
      5 H                     0.193626
      6 H                     0.195295
      7 H                     0.191006
      8 H                     0.268606
      9 O                    -0.265423
     10 C                    -0.598603
     11 C                    -0.056837
     12 C                    -0.101201
     13 C                    -0.715936
     14 H                     0.194060
     15 H                     0.168204
     16 H                     0.110065
     17 H                     0.186181
     18 H                     0.155585
     19 H                     0.147394
     20 H                     0.171570
     21 H                     0.161638
     22 H                     0.170692
  ----------------------------------------
  Sum of atomic charges =     0.000000

                    Cartesian Multipole Moments
 -----------------------------------------------------------------
    Charge (ESU x 10^10)
                -0.0000
    Dipole Moment (Debye)
         X      -0.5950      Y      -0.2513      Z      -1.6961
       Tot       1.8149
    Quadrupole Moments (Debye-Ang)
        XX     -44.3980     XY      -7.7660     YY     -46.2312
        XZ      -0.9060     YZ      -2.6514     ZZ     -55.0837

 Total job time:  366.65s(wall), 4313.11s(cpu)
        *  Thank you very much for using Q-Chem.  Have a nice day.  *
