 Q-Chem 5.4, Q-Chem, Inc., Pleasanton, CA (2021)
 Q-Chem 5.4.0 for Intel X86 EM64T Linux

User input:
--------------------------------------------------------------
$molecule
0 1
C	        3.2504370000        -0.3235200000         0.0372000000
C	        2.1312650000         0.6164790000         0.2910000000
H	        1.2466180000         1.3427660000         0.4821330000
C	        4.2298570000        -1.1423380000        -0.1801670000
H	        4.2428250000        -1.9442470000         0.5637110000
H	        5.1919520000        -0.6240800000        -0.1317760000
H	        4.1455940000        -1.6025120000        -1.1689890000
H	       -0.3820270000         3.1368500000        -0.1256620000
O	       -0.4860440000         2.2923080000         0.3231290000
C	       -1.2836810000         1.4224860000        -0.4964050000
C	       -1.6050370000         0.1703110000         0.3047000000
C	       -2.4413690000        -0.8406240000        -0.4886700000
C	       -2.7622640000        -2.1040760000         0.3161280000
H	       -0.7325990000         1.1563360000        -1.4087710000
H	       -2.2103900000         1.9298260000        -0.7950950000
H	       -0.6658430000        -0.2952270000         0.6220900000
H	       -2.1363580000         0.4645300000         1.2168550000
H	       -1.9043390000        -1.1186390000        -1.4036860000
H	       -3.3765290000        -0.3681970000        -0.8142640000
H	       -1.8460430000        -2.6159220000         0.6261390000
H	       -3.3278750000        -1.8621560000         1.2213900000
H	       -3.3571800000        -2.8101730000        -0.2696650000
$end
$rem
jobtype polarizability
method tpss
basis 6-311++g**
thresh 14
scf_convergence 9
scf_algorithm diis
max_scf_cycles 200
gui 2
set_iter 30
RPA False
mem_total 40000
mem_static 2000
n_frozen_virtual 0
mom_start False
skip_scfman False
scf_guess_mix False
symmetry False
sym_ignore True
sym_tol 5
dft_d d3
xc_smart_grid True
xc_grid 000099000590
$end

--------------------------------------------------------------

             Standard Nuclear Orientation (Angstroms)
    I     Atom           X                Y                Z
 ----------------------------------------------------------------
    1      C       3.2504370000    -0.3235200000     0.0372000000
    2      C       2.1312650000     0.6164790000     0.2910000000
    3      H       1.2466180000     1.3427660000     0.4821330000
    4      C       4.2298570000    -1.1423380000    -0.1801670000
    5      H       4.2428250000    -1.9442470000     0.5637110000
    6      H       5.1919520000    -0.6240800000    -0.1317760000
    7      H       4.1455940000    -1.6025120000    -1.1689890000
    8      H      -0.3820270000     3.1368500000    -0.1256620000
    9      O      -0.4860440000     2.2923080000     0.3231290000
   10      C      -1.2836810000     1.4224860000    -0.4964050000
   11      C      -1.6050370000     0.1703110000     0.3047000000
   12      C      -2.4413690000    -0.8406240000    -0.4886700000
   13      C      -2.7622640000    -2.1040760000     0.3161280000
   14      H      -0.7325990000     1.1563360000    -1.4087710000
   15      H      -2.2103900000     1.9298260000    -0.7950950000
   16      H      -0.6658430000    -0.2952270000     0.6220900000
   17      H      -2.1363580000     0.4645300000     1.2168550000
   18      H      -1.9043390000    -1.1186390000    -1.4036860000
   19      H      -3.3765290000    -0.3681970000    -0.8142640000
   20      H      -1.8460430000    -2.6159220000     0.6261390000
   21      H      -3.3278750000    -1.8621560000     1.2213900000
   22      H      -3.3571800000    -2.8101730000    -0.2696650000
 ----------------------------------------------------------------

   16    -350.3806524552      4.12e-10  Convergence criterion met
 Total energy in the final basis set =     -350.3806524552

                    Orbital Energies (a.u.)
 --------------------------------------------------------------

 Alpha MOs
 -- Occupied --
-18.8947 -10.0357 -10.0161 -10.0134 -10.0019  -9.9843  -9.9792  -9.9744
 -0.9675  -0.7543  -0.7398  -0.6704  -0.5904  -0.5819  -0.5370  -0.4836
 -0.4744  -0.4425  -0.4115  -0.4114  -0.4065  -0.3942  -0.3890  -0.3641
 -0.3319  -0.3239  -0.3021  -0.2953  -0.2926  -0.2464  -0.1909  -0.1908

          Ground-State Mulliken Net Atomic Charges

     Atom                 Charge (a.u.)
  ----------------------------------------
      1 C                     0.516169
      2 C                    -1.557763
      3 H                     0.335774
      4 C                     0.147310
      5 H                     0.190638
      6 H                     0.192125
      7 H                     0.188206
      8 H                     0.264906
      9 O                    -0.267724
     10 C                    -0.589147
     11 C                    -0.070180
     12 C                    -0.098260
     13 C                    -0.716335
     14 H                     0.190776
     15 H                     0.168081
     16 H                     0.113906
     17 H                     0.186131
     18 H                     0.154857
     19 H                     0.147536
     20 H                     0.170530
     21 H                     0.161854
     22 H                     0.170612
  ----------------------------------------
  Sum of atomic charges =     0.000000

                    Cartesian Multipole Moments
 -----------------------------------------------------------------
    Charge (ESU x 10^10)
                -0.0000
    Dipole Moment (Debye)
         X      -0.5345      Y      -0.2182      Z      -1.6492
       Tot       1.7473
    Quadrupole Moments (Debye-Ang)
        XX     -44.9857     XY      -6.9329     YY     -46.5247
        XZ      -0.7299     YZ      -2.7129     ZZ     -54.8030

 Total job time:  365.73s(wall), 4303.72s(cpu)
        *  Thank you very much for using Q-Chem.  Have a nice day.  *
