 Q-Chem 5.4, Q-Chem, Inc., Pleasanton, CA (2021)
 Q-Chem 5.4.0 for Intel X86 EM64T Linux

User input:
--------------------------------------------------------------
$molecule
0 1
C	        3.1608300000        -0.2486070000         0.0570870000
C	        2.1955010000         0.5625350000         0.2764440000
H	        1.3623570000         1.2478120000         0.4571640000
C	        4.2298570000        -1.1423380000        -0.1801670000
H	        4.2428250000        -1.9442470000         0.5637110000
H	        5.1919520000        -0.6240800000        -0.1317760000
H	        4.1455940000        -1.6025120000        -1.1689890000
H	       -0.3820270000         3.1368500000        -0.1256620000
O	       -0.4860440000         2.2923080000         0.3231290000
C	       -1.2836810000         1.4224860000        -0.4964050000
C	       -1.6050370000         0.1703110000         0.3047000000
C	       -2.4413690000        -0.8406240000        -0.4886700000
C	       -2.7622640000        -2.1040760000         0.3161280000
H	       -0.7325990000         1.1563360000        -1.4087710000
H	       -2.2103900000         1.9298260000        -0.7950950000
H	       -0.6658430000        -0.2952270000         0.6220900000
H	       -2.1363580000         0.4645300000         1.2168550000
H	       -1.9043390000        -1.1186390000        -1.4036860000
H	       -3.3765290000        -0.3681970000        -0.8142640000
H	       -1.8460430000        -2.6159220000         0.6261390000
H	       -3.3278750000        -1.8621560000         1.2213900000
H	       -3.3571800000        -2.8101730000        -0.2696650000
$end
$rem
jobtype polarizability
method tpss
basis 6-311++g**
thresh 14
scf_convergence 9
scf_algorithm diis
max_scf_cycles 200
gui 2
set_iter 30
RPA False
mem_total 40000
mem_static 2000
n_frozen_virtual 0
mom_start False
skip_scfman False
scf_guess_mix False
symmetry False
sym_ignore True
sym_tol 5
dft_d d3
xc_smart_grid True
xc_grid 000099000590
$end

--------------------------------------------------------------

             Standard Nuclear Orientation (Angstroms)
    I     Atom           X                Y                Z
 ----------------------------------------------------------------
    1      C       3.1608300000    -0.2486070000     0.0570870000
    2      C       2.1955010000     0.5625350000     0.2764440000
    3      H       1.3623570000     1.2478120000     0.4571640000
    4      C       4.2298570000    -1.1423380000    -0.1801670000
    5      H       4.2428250000    -1.9442470000     0.5637110000
    6      H       5.1919520000    -0.6240800000    -0.1317760000
    7      H       4.1455940000    -1.6025120000    -1.1689890000
    8      H      -0.3820270000     3.1368500000    -0.1256620000
    9      O      -0.4860440000     2.2923080000     0.3231290000
   10      C      -1.2836810000     1.4224860000    -0.4964050000
   11      C      -1.6050370000     0.1703110000     0.3047000000
   12      C      -2.4413690000    -0.8406240000    -0.4886700000
   13      C      -2.7622640000    -2.1040760000     0.3161280000
   14      H      -0.7325990000     1.1563360000    -1.4087710000
   15      H      -2.2103900000     1.9298260000    -0.7950950000
   16      H      -0.6658430000    -0.2952270000     0.6220900000
   17      H      -2.1363580000     0.4645300000     1.2168550000
   18      H      -1.9043390000    -1.1186390000    -1.4036860000
   19      H      -3.3765290000    -0.3681970000    -0.8142640000
   20      H      -1.8460430000    -2.6159220000     0.6261390000
   21      H      -3.3278750000    -1.8621560000     1.2213900000
   22      H      -3.3571800000    -2.8101730000    -0.2696650000
 ----------------------------------------------------------------

   16    -350.4804304098      2.64e-10  Convergence criterion met
 Total energy in the final basis set =     -350.4804304098

                    Orbital Energies (a.u.)
 --------------------------------------------------------------

 Alpha MOs
 -- Occupied --
-18.8886 -10.0338 -10.0036  -9.9877  -9.9841  -9.9790  -9.9760  -9.9745
 -0.9620  -0.7393  -0.7244  -0.6694  -0.6293  -0.5807  -0.5365  -0.4778
 -0.4696  -0.4406  -0.4080  -0.3943  -0.3942  -0.3936  -0.3912  -0.3632
 -0.3314  -0.3219  -0.3019  -0.2948  -0.2910  -0.2417  -0.2179  -0.2178

          Ground-State Mulliken Net Atomic Charges

     Atom                 Charge (a.u.)
  ----------------------------------------
      1 C                     0.461775
      2 C                    -0.350258
      3 H                     0.285864
      4 C                    -0.909918
      5 H                     0.181460
      6 H                     0.182700
      7 H                     0.179237
      8 H                     0.259076
      9 O                    -0.276726
     10 C                    -0.572022
     11 C                    -0.094607
     12 C                    -0.092840
     13 C                    -0.716548
     14 H                     0.186041
     15 H                     0.165967
     16 H                     0.121409
     17 H                     0.185919
     18 H                     0.153840
     19 H                     0.147944
     20 H                     0.168992
     21 H                     0.162177
     22 H                     0.170518
  ----------------------------------------
  Sum of atomic charges =     0.000000

                    Cartesian Multipole Moments
 -----------------------------------------------------------------
    Charge (ESU x 10^10)
                 0.0000
    Dipole Moment (Debye)
         X      -0.5224      Y      -0.1313      Z      -1.5845
       Tot       1.6736
    Quadrupole Moments (Debye-Ang)
        XX     -45.9604     XY      -5.6180     YY     -46.7749
        XZ      -0.4449     YZ      -2.8327     ZZ     -54.2147

 Total job time:  355.84s(wall), 4203.21s(cpu)
        *  Thank you very much for using Q-Chem.  Have a nice day.  *
