 Q-Chem 5.4, Q-Chem, Inc., Pleasanton, CA (2021)
 Q-Chem 5.4.0 for Intel X86 EM64T Linux

User input:
--------------------------------------------------------------
$molecule
0 1
C	        3.3221220000        -0.3834500000         0.0212910000
C	        2.0798580000         0.6596200000         0.3026140000
H	        1.1538660000         1.4185650000         0.5019830000
C	        4.2298570000        -1.1423380000        -0.1801670000
H	        4.2428250000        -1.9442470000         0.5637110000
H	        5.1919520000        -0.6240800000        -0.1317760000
H	        4.1455940000        -1.6025120000        -1.1689890000
H	       -0.3820270000         3.1368500000        -0.1256620000
O	       -0.4860440000         2.2923080000         0.3231290000
C	       -1.2836810000         1.4224860000        -0.4964050000
C	       -1.6050370000         0.1703110000         0.3047000000
C	       -2.4413690000        -0.8406240000        -0.4886700000
C	       -2.7622640000        -2.1040760000         0.3161280000
H	       -0.7325990000         1.1563360000        -1.4087710000
H	       -2.2103900000         1.9298260000        -0.7950950000
H	       -0.6658430000        -0.2952270000         0.6220900000
H	       -2.1363580000         0.4645300000         1.2168550000
H	       -1.9043390000        -1.1186390000        -1.4036860000
H	       -3.3765290000        -0.3681970000        -0.8142640000
H	       -1.8460430000        -2.6159220000         0.6261390000
H	       -3.3278750000        -1.8621560000         1.2213900000
H	       -3.3571800000        -2.8101730000        -0.2696650000
$end
$rem
jobtype polarizability
method tpss
basis 6-311++g**
thresh 14
scf_convergence 9
scf_algorithm diis
max_scf_cycles 200
gui 2
set_iter 30
RPA False
mem_total 40000
mem_static 2000
n_frozen_virtual 0
mom_start False
skip_scfman False
scf_guess_mix False
symmetry False
sym_ignore True
sym_tol 5
dft_d d3
xc_smart_grid True
xc_grid 000099000590
$end

--------------------------------------------------------------

             Standard Nuclear Orientation (Angstroms)
    I     Atom           X                Y                Z
 ----------------------------------------------------------------
    1      C       3.3221220000    -0.3834500000     0.0212910000
    2      C       2.0798580000     0.6596200000     0.3026140000
    3      H       1.1538660000     1.4185650000     0.5019830000
    4      C       4.2298570000    -1.1423380000    -0.1801670000
    5      H       4.2428250000    -1.9442470000     0.5637110000
    6      H       5.1919520000    -0.6240800000    -0.1317760000
    7      H       4.1455940000    -1.6025120000    -1.1689890000
    8      H      -0.3820270000     3.1368500000    -0.1256620000
    9      O      -0.4860440000     2.2923080000     0.3231290000
   10      C      -1.2836810000     1.4224860000    -0.4964050000
   11      C      -1.6050370000     0.1703110000     0.3047000000
   12      C      -2.4413690000    -0.8406240000    -0.4886700000
   13      C      -2.7622640000    -2.1040760000     0.3161280000
   14      H      -0.7325990000     1.1563360000    -1.4087710000
   15      H      -2.2103900000     1.9298260000    -0.7950950000
   16      H      -0.6658430000    -0.2952270000     0.6220900000
   17      H      -2.1363580000     0.4645300000     1.2168550000
   18      H      -1.9043390000    -1.1186390000    -1.4036860000
   19      H      -3.3765290000    -0.3681970000    -0.8142640000
   20      H      -1.8460430000    -2.6159220000     0.6261390000
   21      H      -3.3278750000    -1.8621560000     1.2213900000
   22      H      -3.3571800000    -2.8101730000    -0.2696650000
 ----------------------------------------------------------------

   20    -350.2530471711      2.59e-10  Convergence criterion met
 Total energy in the final basis set =     -350.2530471711

                    Orbital Energies (a.u.)
 --------------------------------------------------------------

 Alpha MOs
 -- Occupied --
-18.9021 -10.0381 -10.0292 -10.0244  -9.9995  -9.9847  -9.9797  -9.9745
 -0.9741  -0.7836  -0.7406  -0.6718  -0.5835  -0.5607  -0.5376  -0.4896
 -0.4793  -0.4440  -0.4285  -0.4284  -0.4038  -0.3957  -0.3811  -0.3647
 -0.3325  -0.3261  -0.3025  -0.2964  -0.2940  -0.2518  -0.1715  -0.1712

          Ground-State Mulliken Net Atomic Charges

     Atom                 Charge (a.u.)
  ----------------------------------------
      1 C                    -0.073061
      2 C                    -1.168808
      3 H                     0.372872
      4 C                     0.286995
      5 H                     0.194367
      6 H                     0.196127
      7 H                     0.191649
      8 H                     0.269967
      9 O                    -0.263847
     10 C                    -0.602288
     11 C                    -0.051880
     12 C                    -0.102335
     13 C                    -0.715800
     14 H                     0.195248
     15 H                     0.168334
     16 H                     0.108862
     17 H                     0.186173
     18 H                     0.155840
     19 H                     0.147345
     20 H                     0.171939
     21 H                     0.161567
     22 H                     0.170734
  ----------------------------------------
  Sum of atomic charges =     0.000000

                    Cartesian Multipole Moments
 -----------------------------------------------------------------
    Charge (ESU x 10^10)
                -0.0000
    Dipole Moment (Debye)
         X      -0.6311      Y      -0.2550      Z      -1.7125
       Tot       1.8429
    Quadrupole Moments (Debye-Ang)
        XX     -44.2320     XY      -8.0417     YY     -46.1098
        XZ      -0.9630     YZ      -2.6334     ZZ     -55.1680

 Total job time:  382.91s(wall), 4504.67s(cpu)
        *  Thank you very much for using Q-Chem.  Have a nice day.  *
