 Q-Chem 5.4, Q-Chem, Inc., Pleasanton, CA (2021)
 Q-Chem 5.4.0 for Intel X86 EM64T Linux

User input:
--------------------------------------------------------------
$molecule
0 1
C	        3.1070660000        -0.2036590000         0.0690190000
C	        2.2340280000         0.5301580000         0.2676850000
H	        1.4317090000         1.1907470000         0.4421080000
C	        4.2298570000        -1.1423380000        -0.1801670000
H	        4.2428250000        -1.9442470000         0.5637110000
H	        5.1919520000        -0.6240800000        -0.1317760000
H	        4.1455940000        -1.6025120000        -1.1689890000
H	       -0.3820270000         3.1368500000        -0.1256620000
O	       -0.4860440000         2.2923080000         0.3231290000
C	       -1.2836810000         1.4224860000        -0.4964050000
C	       -1.6050370000         0.1703110000         0.3047000000
C	       -2.4413690000        -0.8406240000        -0.4886700000
C	       -2.7622640000        -2.1040760000         0.3161280000
H	       -0.7325990000         1.1563360000        -1.4087710000
H	       -2.2103900000         1.9298260000        -0.7950950000
H	       -0.6658430000        -0.2952270000         0.6220900000
H	       -2.1363580000         0.4645300000         1.2168550000
H	       -1.9043390000        -1.1186390000        -1.4036860000
H	       -3.3765290000        -0.3681970000        -0.8142640000
H	       -1.8460430000        -2.6159220000         0.6261390000
H	       -3.3278750000        -1.8621560000         1.2213900000
H	       -3.3571800000        -2.8101730000        -0.2696650000
$end
$rem
jobtype polarizability
method tpss
basis 6-311++g**
thresh 14
scf_convergence 9
scf_algorithm diis
max_scf_cycles 200
gui 2
set_iter 30
RPA False
mem_total 40000
mem_static 2000
n_frozen_virtual 0
mom_start False
skip_scfman False
scf_guess_mix False
symmetry False
sym_ignore True
sym_tol 5
dft_d d3
xc_smart_grid True
xc_grid 000099000590
$end

--------------------------------------------------------------

             Standard Nuclear Orientation (Angstroms)
    I     Atom           X                Y                Z
 ----------------------------------------------------------------
    1      C       3.1070660000    -0.2036590000     0.0690190000
    2      C       2.2340280000     0.5301580000     0.2676850000
    3      H       1.4317090000     1.1907470000     0.4421080000
    4      C       4.2298570000    -1.1423380000    -0.1801670000
    5      H       4.2428250000    -1.9442470000     0.5637110000
    6      H       5.1919520000    -0.6240800000    -0.1317760000
    7      H       4.1455940000    -1.6025120000    -1.1689890000
    8      H      -0.3820270000     3.1368500000    -0.1256620000
    9      O      -0.4860440000     2.2923080000     0.3231290000
   10      C      -1.2836810000     1.4224860000    -0.4964050000
   11      C      -1.6050370000     0.1703110000     0.3047000000
   12      C      -2.4413690000    -0.8406240000    -0.4886700000
   13      C      -2.7622640000    -2.1040760000     0.3161280000
   14      H      -0.7325990000     1.1563360000    -1.4087710000
   15      H      -2.2103900000     1.9298260000    -0.7950950000
   16      H      -0.6658430000    -0.2952270000     0.6220900000
   17      H      -2.1363580000     0.4645300000     1.2168550000
   18      H      -1.9043390000    -1.1186390000    -1.4036860000
   19      H      -3.3765290000    -0.3681970000    -0.8142640000
   20      H      -1.8460430000    -2.6159220000     0.6261390000
   21      H      -3.3278750000    -1.8621560000     1.2213900000
   22      H      -3.3571800000    -2.8101730000    -0.2696650000
 ----------------------------------------------------------------

   16    -350.4834656237      2.83e-10  Convergence criterion met
 Total energy in the final basis set =     -350.4834656237

                    Orbital Energies (a.u.)
 --------------------------------------------------------------

 Alpha MOs
 -- Occupied --
-18.8859 -10.0330 -10.0040  -9.9841  -9.9789  -9.9745  -9.9623  -9.9445
 -0.9595  -0.7391  -0.7158  -0.6690  -0.6457  -0.5802  -0.5362  -0.4755
 -0.4677  -0.4397  -0.4022  -0.3934  -0.3911  -0.3863  -0.3862  -0.3627
 -0.3311  -0.3209  -0.3018  -0.2947  -0.2901  -0.2395  -0.2367  -0.2366

          Ground-State Mulliken Net Atomic Charges

     Atom                 Charge (a.u.)
  ----------------------------------------
      1 C                     0.456108
      2 C                    -0.278887
      3 H                     0.250897
      4 C                    -0.929042
      5 H                     0.177750
      6 H                     0.178965
      7 H                     0.175609
      8 H                     0.256359
      9 O                    -0.272398
     10 C                    -0.566149
     11 C                    -0.103584
     12 C                    -0.090618
     13 C                    -0.716849
     14 H                     0.183613
     15 H                     0.166316
     16 H                     0.124060
     17 H                     0.185625
     18 H                     0.153205
     19 H                     0.148001
     20 H                     0.168151
     21 H                     0.162380
     22 H                     0.170489
  ----------------------------------------
  Sum of atomic charges =     0.000000

                    Cartesian Multipole Moments
 -----------------------------------------------------------------
    Charge (ESU x 10^10)
                 0.0000
    Dipole Moment (Debye)
         X      -0.5305      Y      -0.0816      Z      -1.5549
       Tot       1.6449
    Quadrupole Moments (Debye-Ang)
        XX     -46.3859     XY      -4.9208     YY     -46.7810
        XZ      -0.2915     YZ      -2.9108     ZZ     -53.7788

 Total job time:  352.88s(wall), 4158.30s(cpu)
        *  Thank you very much for using Q-Chem.  Have a nice day.  *
