 Q-Chem 5.4, Q-Chem, Inc., Pleasanton, CA (2021)
 Q-Chem 5.4.0 for Intel X86 EM64T Linux

User input:
--------------------------------------------------------------
$molecule
0 1
C	        3.2683580000        -0.3385020000         0.0332230000
C	        2.1184150000         0.6272650000         0.2939060000
H	        1.2234450000         1.3617310000         0.4871060000
C	        4.2298570000        -1.1423380000        -0.1801670000
H	        4.2428250000        -1.9442470000         0.5637110000
H	        5.1919520000        -0.6240800000        -0.1317760000
H	        4.1455940000        -1.6025120000        -1.1689890000
H	       -0.3820270000         3.1368500000        -0.1256620000
O	       -0.4860440000         2.2923080000         0.3231290000
C	       -1.2836810000         1.4224860000        -0.4964050000
C	       -1.6050370000         0.1703110000         0.3047000000
C	       -2.4413690000        -0.8406240000        -0.4886700000
C	       -2.7622640000        -2.1040760000         0.3161280000
H	       -0.7325990000         1.1563360000        -1.4087710000
H	       -2.2103900000         1.9298260000        -0.7950950000
H	       -0.6658430000        -0.2952270000         0.6220900000
H	       -2.1363580000         0.4645300000         1.2168550000
H	       -1.9043390000        -1.1186390000        -1.4036860000
H	       -3.3765290000        -0.3681970000        -0.8142640000
H	       -1.8460430000        -2.6159220000         0.6261390000
H	       -3.3278750000        -1.8621560000         1.2213900000
H	       -3.3571800000        -2.8101730000        -0.2696650000
$end
$rem
jobtype polarizability
method tpss
basis 6-311++g**
thresh 14
scf_convergence 9
scf_algorithm diis
max_scf_cycles 200
gui 2
set_iter 30
RPA False
mem_total 40000
mem_static 2000
n_frozen_virtual 0
mom_start False
skip_scfman False
scf_guess_mix False
symmetry False
sym_ignore True
sym_tol 5
dft_d d3
xc_smart_grid True
xc_grid 000099000590
$end

--------------------------------------------------------------

             Standard Nuclear Orientation (Angstroms)
    I     Atom           X                Y                Z
 ----------------------------------------------------------------
    1      C       3.2683580000    -0.3385020000     0.0332230000
    2      C       2.1184150000     0.6272650000     0.2939060000
    3      H       1.2234450000     1.3617310000     0.4871060000
    4      C       4.2298570000    -1.1423380000    -0.1801670000
    5      H       4.2428250000    -1.9442470000     0.5637110000
    6      H       5.1919520000    -0.6240800000    -0.1317760000
    7      H       4.1455940000    -1.6025120000    -1.1689890000
    8      H      -0.3820270000     3.1368500000    -0.1256620000
    9      O      -0.4860440000     2.2923080000     0.3231290000
   10      C      -1.2836810000     1.4224860000    -0.4964050000
   11      C      -1.6050370000     0.1703110000     0.3047000000
   12      C      -2.4413690000    -0.8406240000    -0.4886700000
   13      C      -2.7622640000    -2.1040760000     0.3161280000
   14      H      -0.7325990000     1.1563360000    -1.4087710000
   15      H      -2.2103900000     1.9298260000    -0.7950950000
   16      H      -0.6658430000    -0.2952270000     0.6220900000
   17      H      -2.1363580000     0.4645300000     1.2168550000
   18      H      -1.9043390000    -1.1186390000    -1.4036860000
   19      H      -3.3765290000    -0.3681970000    -0.8142640000
   20      H      -1.8460430000    -2.6159220000     0.6261390000
   21      H      -3.3278750000    -1.8621560000     1.2213900000
   22      H      -3.3571800000    -2.8101730000    -0.2696650000
 ----------------------------------------------------------------

   17    -350.3520241868      2.52e-10  Convergence criterion met
 Total energy in the final basis set =     -350.3520241868

                    Orbital Energies (a.u.)
 --------------------------------------------------------------

 Alpha MOs
 -- Occupied --
-18.8962 -10.0362 -10.0193 -10.0185 -10.0015  -9.9844  -9.9793  -9.9744
 -0.9689  -0.7614  -0.7400  -0.6707  -0.5831  -0.5817  -0.5371  -0.4850
 -0.4755  -0.4429  -0.4155  -0.4154  -0.4055  -0.3945  -0.3876  -0.3643
 -0.3321  -0.3244  -0.3021  -0.2954  -0.2930  -0.2476  -0.1859  -0.1858

          Ground-State Mulliken Net Atomic Charges

     Atom                 Charge (a.u.)
  ----------------------------------------
      1 C                     0.353397
      2 C                    -1.444401
      3 H                     0.345396
      4 C                     0.181465
      5 H                     0.191735
      6 H                     0.193269
      7 H                     0.189255
      8 H                     0.266081
      9 O                    -0.267325
     10 C                    -0.592073
     11 C                    -0.065958
     12 C                    -0.099170
     13 C                    -0.716203
     14 H                     0.191827
     15 H                     0.168084
     16 H                     0.112597
     17 H                     0.186160
     18 H                     0.155094
     19 H                     0.147490
     20 H                     0.170866
     21 H                     0.161781
     22 H                     0.170632
  ----------------------------------------
  Sum of atomic charges =     0.000000

                    Cartesian Multipole Moments
 -----------------------------------------------------------------
    Charge (ESU x 10^10)
                 0.0000
    Dipole Moment (Debye)
         X      -0.5480      Y      -0.2322      Z      -1.6643
       Tot       1.7675
    Quadrupole Moments (Debye-Ang)
        XX     -44.7803     XY      -7.2099     YY     -46.4387
        XZ      -0.7890     YZ      -2.6913     ZZ     -54.9017

 Total job time:  368.06s(wall), 4331.50s(cpu)
        *  Thank you very much for using Q-Chem.  Have a nice day.  *
