 Q-Chem 5.4, Q-Chem, Inc., Pleasanton, CA (2021)
 Q-Chem 5.4.0 for Intel X86 EM64T Linux

User input:
--------------------------------------------------------------
$molecule
0 1
C	        3.0353810000        -0.1437290000         0.0849280000
C	        2.2853750000         0.4869730000         0.2559680000
H	        1.5240830000         1.1145680000         0.4219510000
C	        4.2298570000        -1.1423380000        -0.1801670000
H	        4.2428250000        -1.9442470000         0.5637110000
H	        5.1919520000        -0.6240800000        -0.1317760000
H	        4.1455940000        -1.6025120000        -1.1689890000
H	       -0.3820270000         3.1368500000        -0.1256620000
O	       -0.4860440000         2.2923080000         0.3231290000
C	       -1.2836810000         1.4224860000        -0.4964050000
C	       -1.6050370000         0.1703110000         0.3047000000
C	       -2.4413690000        -0.8406240000        -0.4886700000
C	       -2.7622640000        -2.1040760000         0.3161280000
H	       -0.7325990000         1.1563360000        -1.4087710000
H	       -2.2103900000         1.9298260000        -0.7950950000
H	       -0.6658430000        -0.2952270000         0.6220900000
H	       -2.1363580000         0.4645300000         1.2168550000
H	       -1.9043390000        -1.1186390000        -1.4036860000
H	       -3.3765290000        -0.3681970000        -0.8142640000
H	       -1.8460430000        -2.6159220000         0.6261390000
H	       -3.3278750000        -1.8621560000         1.2213900000
H	       -3.3571800000        -2.8101730000        -0.2696650000
$end
$rem
jobtype polarizability
method tpss
basis 6-311++g**
thresh 14
scf_convergence 9
scf_algorithm diis
max_scf_cycles 200
gui 2
set_iter 30
RPA False
mem_total 40000
mem_static 2000
n_frozen_virtual 0
mom_start False
skip_scfman False
scf_guess_mix False
symmetry False
sym_ignore True
sym_tol 5
dft_d d3
xc_smart_grid True
xc_grid 000099000590
$end

--------------------------------------------------------------

             Standard Nuclear Orientation (Angstroms)
    I     Atom           X                Y                Z
 ----------------------------------------------------------------
    1      C       3.0353810000    -0.1437290000     0.0849280000
    2      C       2.2853750000     0.4869730000     0.2559680000
    3      H       1.5240830000     1.1145680000     0.4219510000
    4      C       4.2298570000    -1.1423380000    -0.1801670000
    5      H       4.2428250000    -1.9442470000     0.5637110000
    6      H       5.1919520000    -0.6240800000    -0.1317760000
    7      H       4.1455940000    -1.6025120000    -1.1689890000
    8      H      -0.3820270000     3.1368500000    -0.1256620000
    9      O      -0.4860440000     2.2923080000     0.3231290000
   10      C      -1.2836810000     1.4224860000    -0.4964050000
   11      C      -1.6050370000     0.1703110000     0.3047000000
   12      C      -2.4413690000    -0.8406240000    -0.4886700000
   13      C      -2.7622640000    -2.1040760000     0.3161280000
   14      H      -0.7325990000     1.1563360000    -1.4087710000
   15      H      -2.2103900000     1.9298260000    -0.7950950000
   16      H      -0.6658430000    -0.2952270000     0.6220900000
   17      H      -2.1363580000     0.4645300000     1.2168550000
   18      H      -1.9043390000    -1.1186390000    -1.4036860000
   19      H      -3.3765290000    -0.3681970000    -0.8142640000
   20      H      -1.8460430000    -2.6159220000     0.6261390000
   21      H      -3.3278750000    -1.8621560000     1.2213900000
   22      H      -3.3571800000    -2.8101730000    -0.2696650000
 ----------------------------------------------------------------

   16    -350.3460495306      2.11e-10  Convergence criterion met
 Total energy in the final basis set =     -350.3460495306

                    Orbital Energies (a.u.)
 --------------------------------------------------------------

 Alpha MOs
 -- Occupied --
-18.8831 -10.0320 -10.0038  -9.9840  -9.9788  -9.9746  -9.9269  -9.8980
 -0.9568  -0.7389  -0.7168  -0.6685  -0.6481  -0.5796  -0.5359  -0.4721
 -0.4655  -0.4391  -0.3940  -0.3911  -0.3836  -0.3782  -0.3781  -0.3622
 -0.3308  -0.3198  -0.3017  -0.2946  -0.2890  -0.2678  -0.2676  -0.2368

          Ground-State Mulliken Net Atomic Charges

     Atom                 Charge (a.u.)
  ----------------------------------------
      1 C                     0.341059
      2 C                    -0.128339
      3 H                     0.199693
      4 C                    -0.904137
      5 H                     0.173953
      6 H                     0.174939
      7 H                     0.171953
      8 H                     0.253101
      9 O                    -0.264182
     10 C                    -0.559506
     11 C                    -0.113062
     12 C                    -0.088668
     13 C                    -0.717234
     14 H                     0.180823
     15 H                     0.166948
     16 H                     0.126916
     17 H                     0.185154
     18 H                     0.152398
     19 H                     0.148021
     20 H                     0.167073
     21 H                     0.162652
     22 H                     0.170446
  ----------------------------------------
  Sum of atomic charges =     0.000000

                    Cartesian Multipole Moments
 -----------------------------------------------------------------
    Charge (ESU x 10^10)
                -0.0000
    Dipole Moment (Debye)
         X      -0.5445      Y      -0.0235      Z      -1.5243
       Tot       1.6188
    Quadrupole Moments (Debye-Ang)
        XX     -46.7424     XY      -4.0857     YY     -46.6366
        XZ      -0.1067     YZ      -3.0187     ZZ     -53.0964

 Total job time:  339.27s(wall), 3995.25s(cpu)
        *  Thank you very much for using Q-Chem.  Have a nice day.  *
