 Q-Chem 5.4, Q-Chem, Inc., Pleasanton, CA (2021)
 Q-Chem 5.4.0 for Intel X86 EM64T Linux

User input:
--------------------------------------------------------------
$molecule
0 1
C	        3.2862790000        -0.3534850000         0.0292450000
C	        2.1055630000         0.6380510000         0.2968100000
H	        1.2002620000         1.3806860000         0.4920730000
C	        4.2298570000        -1.1423380000        -0.1801670000
H	        4.2428250000        -1.9442470000         0.5637110000
H	        5.1919520000        -0.6240800000        -0.1317760000
H	        4.1455940000        -1.6025120000        -1.1689890000
H	       -0.3820270000         3.1368500000        -0.1256620000
O	       -0.4860440000         2.2923080000         0.3231290000
C	       -1.2836810000         1.4224860000        -0.4964050000
C	       -1.6050370000         0.1703110000         0.3047000000
C	       -2.4413690000        -0.8406240000        -0.4886700000
C	       -2.7622640000        -2.1040760000         0.3161280000
H	       -0.7325990000         1.1563360000        -1.4087710000
H	       -2.2103900000         1.9298260000        -0.7950950000
H	       -0.6658430000        -0.2952270000         0.6220900000
H	       -2.1363580000         0.4645300000         1.2168550000
H	       -1.9043390000        -1.1186390000        -1.4036860000
H	       -3.3765290000        -0.3681970000        -0.8142640000
H	       -1.8460430000        -2.6159220000         0.6261390000
H	       -3.3278750000        -1.8621560000         1.2213900000
H	       -3.3571800000        -2.8101730000        -0.2696650000
$end
$rem
jobtype polarizability
method tpss
basis 6-311++g**
thresh 14
scf_convergence 9
scf_algorithm diis
max_scf_cycles 200
gui 2
set_iter 30
RPA False
mem_total 40000
mem_static 2000
n_frozen_virtual 0
mom_start False
skip_scfman False
scf_guess_mix False
symmetry False
sym_ignore True
sym_tol 5
dft_d d3
xc_smart_grid True
xc_grid 000099000590
$end

--------------------------------------------------------------

             Standard Nuclear Orientation (Angstroms)
    I     Atom           X                Y                Z
 ----------------------------------------------------------------
    1      C       3.2862790000    -0.3534850000     0.0292450000
    2      C       2.1055630000     0.6380510000     0.2968100000
    3      H       1.2002620000     1.3806860000     0.4920730000
    4      C       4.2298570000    -1.1423380000    -0.1801670000
    5      H       4.2428250000    -1.9442470000     0.5637110000
    6      H       5.1919520000    -0.6240800000    -0.1317760000
    7      H       4.1455940000    -1.6025120000    -1.1689890000
    8      H      -0.3820270000     3.1368500000    -0.1256620000
    9      O      -0.4860440000     2.2923080000     0.3231290000
   10      C      -1.2836810000     1.4224860000    -0.4964050000
   11      C      -1.6050370000     0.1703110000     0.3047000000
   12      C      -2.4413690000    -0.8406240000    -0.4886700000
   13      C      -2.7622640000    -2.1040760000     0.3161280000
   14      H      -0.7325990000     1.1563360000    -1.4087710000
   15      H      -2.2103900000     1.9298260000    -0.7950950000
   16      H      -0.6658430000    -0.2952270000     0.6220900000
   17      H      -2.1363580000     0.4645300000     1.2168550000
   18      H      -1.9043390000    -1.1186390000    -1.4036860000
   19      H      -3.3765290000    -0.3681970000    -0.8142640000
   20      H      -1.8460430000    -2.6159220000     0.6261390000
   21      H      -3.3278750000    -1.8621560000     1.2213900000
   22      H      -3.3571800000    -2.8101730000    -0.2696650000
 ----------------------------------------------------------------

   17    -350.3211656687      5.17e-10  Convergence criterion met
 Total energy in the final basis set =     -350.3211656687

                    Orbital Energies (a.u.)
 --------------------------------------------------------------

 Alpha MOs
 -- Occupied --
-18.8980 -10.0368 -10.0228 -10.0218 -10.0009  -9.9844  -9.9794  -9.9744
 -0.9705  -0.7687  -0.7402  -0.6710  -0.5827  -0.5750  -0.5373  -0.4866
 -0.4767  -0.4433  -0.4196  -0.4195  -0.4047  -0.3948  -0.3858  -0.3645
 -0.3322  -0.3250  -0.3022  -0.2957  -0.2933  -0.2489  -0.1810  -0.1808

          Ground-State Mulliken Net Atomic Charges

     Atom                 Charge (a.u.)
  ----------------------------------------
      1 C                     0.201611
      2 C                    -1.342442
      3 H                     0.354722
      4 C                     0.216150
      5 H                     0.192740
      6 H                     0.194334
      7 H                     0.190199
      8 H                     0.267312
      9 O                    -0.266570
     10 C                    -0.595212
     11 C                    -0.061519
     12 C                    -0.100149
     13 C                    -0.716070
     14 H                     0.192921
     15 H                     0.168123
     16 H                     0.111314
     17 H                     0.186177
     18 H                     0.155337
     19 H                     0.147443
     20 H                     0.171212
     21 H                     0.161709
     22 H                     0.170659
  ----------------------------------------
  Sum of atomic charges =     0.000000

                    Cartesian Multipole Moments
 -----------------------------------------------------------------
    Charge (ESU x 10^10)
                -0.0000
    Dipole Moment (Debye)
         X      -0.5677      Y      -0.2435      Z      -1.6799
       Tot       1.7899
    Quadrupole Moments (Debye-Ang)
        XX     -44.5826     XY      -7.4882     YY     -46.3408
        XZ      -0.8478     YZ      -2.6707     ZZ     -54.9952

 Total job time:  368.93s(wall), 4338.81s(cpu)
        *  Thank you very much for using Q-Chem.  Have a nice day.  *
