 Q-Chem 5.4, Q-Chem, Inc., Pleasanton, CA (2021)
 Q-Chem 5.4.0 for Intel X86 EM64T Linux

User input:
--------------------------------------------------------------
$molecule
0 1
C	        3.1429090000        -0.2336240000         0.0610640000
C	        2.2083450000         0.5517440000         0.2735270000
H	        1.3854810000         1.2287980000         0.4521510000
C	        4.2298570000        -1.1423380000        -0.1801670000
H	        4.2428250000        -1.9442470000         0.5637110000
H	        5.1919520000        -0.6240800000        -0.1317760000
H	        4.1455940000        -1.6025120000        -1.1689890000
H	       -0.3820270000         3.1368500000        -0.1256620000
O	       -0.4860440000         2.2923080000         0.3231290000
C	       -1.2836810000         1.4224860000        -0.4964050000
C	       -1.6050370000         0.1703110000         0.3047000000
C	       -2.4413690000        -0.8406240000        -0.4886700000
C	       -2.7622640000        -2.1040760000         0.3161280000
H	       -0.7325990000         1.1563360000        -1.4087710000
H	       -2.2103900000         1.9298260000        -0.7950950000
H	       -0.6658430000        -0.2952270000         0.6220900000
H	       -2.1363580000         0.4645300000         1.2168550000
H	       -1.9043390000        -1.1186390000        -1.4036860000
H	       -3.3765290000        -0.3681970000        -0.8142640000
H	       -1.8460430000        -2.6159220000         0.6261390000
H	       -3.3278750000        -1.8621560000         1.2213900000
H	       -3.3571800000        -2.8101730000        -0.2696650000
$end
$rem
jobtype polarizability
method tpss
basis 6-311++g**
thresh 14
scf_convergence 9
scf_algorithm diis
max_scf_cycles 200
gui 2
set_iter 30
RPA False
mem_total 40000
mem_static 2000
n_frozen_virtual 0
mom_start False
skip_scfman False
scf_guess_mix False
symmetry False
sym_ignore True
sym_tol 5
dft_d d3
xc_smart_grid True
xc_grid 000099000590
$end

--------------------------------------------------------------

             Standard Nuclear Orientation (Angstroms)
    I     Atom           X                Y                Z
 ----------------------------------------------------------------
    1      C       3.1429090000    -0.2336240000     0.0610640000
    2      C       2.2083450000     0.5517440000     0.2735270000
    3      H       1.3854810000     1.2287980000     0.4521510000
    4      C       4.2298570000    -1.1423380000    -0.1801670000
    5      H       4.2428250000    -1.9442470000     0.5637110000
    6      H       5.1919520000    -0.6240800000    -0.1317760000
    7      H       4.1455940000    -1.6025120000    -1.1689890000
    8      H      -0.3820270000     3.1368500000    -0.1256620000
    9      O      -0.4860440000     2.2923080000     0.3231290000
   10      C      -1.2836810000     1.4224860000    -0.4964050000
   11      C      -1.6050370000     0.1703110000     0.3047000000
   12      C      -2.4413690000    -0.8406240000    -0.4886700000
   13      C      -2.7622640000    -2.1040760000     0.3161280000
   14      H      -0.7325990000     1.1563360000    -1.4087710000
   15      H      -2.2103900000     1.9298260000    -0.7950950000
   16      H      -0.6658430000    -0.2952270000     0.6220900000
   17      H      -2.1363580000     0.4645300000     1.2168550000
   18      H      -1.9043390000    -1.1186390000    -1.4036860000
   19      H      -3.3765290000    -0.3681970000    -0.8142640000
   20      H      -1.8460430000    -2.6159220000     0.6261390000
   21      H      -3.3278750000    -1.8621560000     1.2213900000
   22      H      -3.3571800000    -2.8101730000    -0.2696650000
 ----------------------------------------------------------------

   16    -350.4880160946      2.75e-10  Convergence criterion met
 Total energy in the final basis set =     -350.4880160946

                    Orbital Energies (a.u.)
 --------------------------------------------------------------

 Alpha MOs
 -- Occupied --
-18.8876 -10.0335 -10.0038  -9.9841  -9.9798  -9.9790  -9.9745  -9.9661
 -0.9611  -0.7393  -0.7204  -0.6693  -0.6359  -0.5805  -0.5364  -0.4770
 -0.4688  -0.4403  -0.4067  -0.3936  -0.3914  -0.3913  -0.3912  -0.3630
 -0.3313  -0.3215  -0.3019  -0.2948  -0.2907  -0.2409  -0.2239  -0.2238

          Ground-State Mulliken Net Atomic Charges

     Atom                 Charge (a.u.)
  ----------------------------------------
      1 C                     0.468108
      2 C                    -0.329090
      3 H                     0.274624
      4 C                    -0.921772
      5 H                     0.180134
      6 H                     0.181370
      7 H                     0.177938
      8 H                     0.258140
      9 O                    -0.275513
     10 C                    -0.569976
     11 C                    -0.097766
     12 C                    -0.092043
     13 C                    -0.716647
     14 H                     0.185199
     15 H                     0.166065
     16 H                     0.122343
     17 H                     0.185830
     18 H                     0.153627
     19 H                     0.147967
     20 H                     0.168708
     21 H                     0.162245
     22 H                     0.170509
  ----------------------------------------
  Sum of atomic charges =     0.000000

                    Cartesian Multipole Moments
 -----------------------------------------------------------------
    Charge (ESU x 10^10)
                 0.0000
    Dipole Moment (Debye)
         X      -0.5248      Y      -0.1140      Z      -1.5739
       Tot       1.6630
    Quadrupole Moments (Debye-Ang)
        XX     -46.1192     XY      -5.3772     YY     -46.7887
        XZ      -0.3920     YZ      -2.8584     ZZ     -54.0767

 Total job time:  359.08s(wall), 4231.66s(cpu)
        *  Thank you very much for using Q-Chem.  Have a nice day.  *
