 Q-Chem 5.4, Q-Chem, Inc., Pleasanton, CA (2021)
 Q-Chem 5.4.0 for Intel X86 EM64T Linux

User input:
--------------------------------------------------------------
$molecule
0 1
C	        3.1966730000        -0.2785720000         0.0491320000
C	        2.1698100000         0.5841150000         0.2822720000
H	        1.3160860000         1.2858180000         0.4671710000
C	        4.2298570000        -1.1423380000        -0.1801670000
H	        4.2428250000        -1.9442470000         0.5637110000
H	        5.1919520000        -0.6240800000        -0.1317760000
H	        4.1455940000        -1.6025120000        -1.1689890000
H	       -0.3820270000         3.1368500000        -0.1256620000
O	       -0.4860440000         2.2923080000         0.3231290000
C	       -1.2836810000         1.4224860000        -0.4964050000
C	       -1.6050370000         0.1703110000         0.3047000000
C	       -2.4413690000        -0.8406240000        -0.4886700000
C	       -2.7622640000        -2.1040760000         0.3161280000
H	       -0.7325990000         1.1563360000        -1.4087710000
H	       -2.2103900000         1.9298260000        -0.7950950000
H	       -0.6658430000        -0.2952270000         0.6220900000
H	       -2.1363580000         0.4645300000         1.2168550000
H	       -1.9043390000        -1.1186390000        -1.4036860000
H	       -3.3765290000        -0.3681970000        -0.8142640000
H	       -1.8460430000        -2.6159220000         0.6261390000
H	       -3.3278750000        -1.8621560000         1.2213900000
H	       -3.3571800000        -2.8101730000        -0.2696650000
$end
$rem
jobtype polarizability
method tpss
basis 6-311++g**
thresh 14
scf_convergence 9
scf_algorithm diis
max_scf_cycles 200
gui 2
set_iter 30
RPA False
mem_total 40000
mem_static 2000
n_frozen_virtual 0
mom_start False
skip_scfman False
scf_guess_mix False
symmetry False
sym_ignore True
sym_tol 5
dft_d d3
xc_smart_grid True
xc_grid 000099000590
$end

--------------------------------------------------------------

             Standard Nuclear Orientation (Angstroms)
    I     Atom           X                Y                Z
 ----------------------------------------------------------------
    1      C       3.1966730000    -0.2785720000     0.0491320000
    2      C       2.1698100000     0.5841150000     0.2822720000
    3      H       1.3160860000     1.2858180000     0.4671710000
    4      C       4.2298570000    -1.1423380000    -0.1801670000
    5      H       4.2428250000    -1.9442470000     0.5637110000
    6      H       5.1919520000    -0.6240800000    -0.1317760000
    7      H       4.1455940000    -1.6025120000    -1.1689890000
    8      H      -0.3820270000     3.1368500000    -0.1256620000
    9      O      -0.4860440000     2.2923080000     0.3231290000
   10      C      -1.2836810000     1.4224860000    -0.4964050000
   11      C      -1.6050370000     0.1703110000     0.3047000000
   12      C      -2.4413690000    -0.8406240000    -0.4886700000
   13      C      -2.7622640000    -2.1040760000     0.3161280000
   14      H      -0.7325990000     1.1563360000    -1.4087710000
   15      H      -2.2103900000     1.9298260000    -0.7950950000
   16      H      -0.6658430000    -0.2952270000     0.6220900000
   17      H      -2.1363580000     0.4645300000     1.2168550000
   18      H      -1.9043390000    -1.1186390000    -1.4036860000
   19      H      -3.3765290000    -0.3681970000    -0.8142640000
   20      H      -1.8460430000    -2.6159220000     0.6261390000
   21      H      -3.3278750000    -1.8621560000     1.2213900000
   22      H      -3.3571800000    -2.8101730000    -0.2696650000
 ----------------------------------------------------------------

   16    -350.4508997461      2.56e-10  Convergence criterion met
 Total energy in the final basis set =     -350.4508997461

                    Orbital Energies (a.u.)
 --------------------------------------------------------------

 Alpha MOs
 -- Occupied --
-18.8907 -10.0345 -10.0031 -10.0014  -9.9934  -9.9842  -9.9791  -9.9744
 -0.9639  -0.7395  -0.7348  -0.6698  -0.6142  -0.5811  -0.5367  -0.4798
 -0.4712  -0.4414  -0.4087  -0.4006  -0.4005  -0.3938  -0.3910  -0.3635
 -0.3316  -0.3226  -0.3019  -0.2949  -0.2916  -0.2434  -0.2066  -0.2065

          Ground-State Mulliken Net Atomic Charges

     Atom                 Charge (a.u.)
  ----------------------------------------
      1 C                     1.086853
      2 C                    -1.986417
      3 H                     0.303963
      4 C                     0.052568
      5 H                     0.187046
      6 H                     0.188458
      7 H                     0.184690
      8 H                     0.261680
      9 O                    -0.267116
     10 C                    -0.581344
     11 C                    -0.081771
     12 C                    -0.095896
     13 C                    -0.716715
     14 H                     0.187862
     15 H                     0.168233
     16 H                     0.117896
     17 H                     0.185968
     18 H                     0.154166
     19 H                     0.147657
     20 H                     0.169574
     21 H                     0.162070
     22 H                     0.170576
  ----------------------------------------
  Sum of atomic charges =     0.000000

                    Cartesian Multipole Moments
 -----------------------------------------------------------------
    Charge (ESU x 10^10)
                -0.0000
    Dipole Moment (Debye)
         X      -0.5201      Y      -0.1673      Z      -1.6079
       Tot       1.6982
    Quadrupole Moments (Debye-Ang)
        XX     -45.5972     XY      -6.1254     YY     -46.7106
        XZ      -0.5555     YZ      -2.7830     ZZ     -54.4707

 Total job time:  360.64s(wall), 4244.56s(cpu)
        *  Thank you very much for using Q-Chem.  Have a nice day.  *
