 Q-Chem 5.4, Q-Chem, Inc., Pleasanton, CA (2021)
 Q-Chem 5.4.0 for Intel X86 EM64T Linux

User input:
--------------------------------------------------------------
$molecule
0 1
C	        3.3400430000        -0.3984330000         0.0173130000
C	        2.0670040000         0.6704040000         0.3055140000
H	        1.1306520000         1.4374880000         0.5069260000
C	        4.2298570000        -1.1423380000        -0.1801670000
H	        4.2428250000        -1.9442470000         0.5637110000
H	        5.1919520000        -0.6240800000        -0.1317760000
H	        4.1455940000        -1.6025120000        -1.1689890000
H	       -0.3820270000         3.1368500000        -0.1256620000
O	       -0.4860440000         2.2923080000         0.3231290000
C	       -1.2836810000         1.4224860000        -0.4964050000
C	       -1.6050370000         0.1703110000         0.3047000000
C	       -2.4413690000        -0.8406240000        -0.4886700000
C	       -2.7622640000        -2.1040760000         0.3161280000
H	       -0.7325990000         1.1563360000        -1.4087710000
H	       -2.2103900000         1.9298260000        -0.7950950000
H	       -0.6658430000        -0.2952270000         0.6220900000
H	       -2.1363580000         0.4645300000         1.2168550000
H	       -1.9043390000        -1.1186390000        -1.4036860000
H	       -3.3765290000        -0.3681970000        -0.8142640000
H	       -1.8460430000        -2.6159220000         0.6261390000
H	       -3.3278750000        -1.8621560000         1.2213900000
H	       -3.3571800000        -2.8101730000        -0.2696650000
$end
$rem
jobtype polarizability
method tpss
basis 6-311++g**
thresh 14
scf_convergence 9
scf_algorithm diis
max_scf_cycles 200
gui 2
set_iter 30
RPA False
mem_total 40000
mem_static 2000
n_frozen_virtual 0
mom_start False
skip_scfman False
scf_guess_mix False
symmetry False
sym_ignore True
sym_tol 5
dft_d d3
xc_smart_grid True
xc_grid 000099000590
$end

--------------------------------------------------------------

             Standard Nuclear Orientation (Angstroms)
    I     Atom           X                Y                Z
 ----------------------------------------------------------------
    1      C       3.3400430000    -0.3984330000     0.0173130000
    2      C       2.0670040000     0.6704040000     0.3055140000
    3      H       1.1306520000     1.4374880000     0.5069260000
    4      C       4.2298570000    -1.1423380000    -0.1801670000
    5      H       4.2428250000    -1.9442470000     0.5637110000
    6      H       5.1919520000    -0.6240800000    -0.1317760000
    7      H       4.1455940000    -1.6025120000    -1.1689890000
    8      H      -0.3820270000     3.1368500000    -0.1256620000
    9      O      -0.4860440000     2.2923080000     0.3231290000
   10      C      -1.2836810000     1.4224860000    -0.4964050000
   11      C      -1.6050370000     0.1703110000     0.3047000000
   12      C      -2.4413690000    -0.8406240000    -0.4886700000
   13      C      -2.7622640000    -2.1040760000     0.3161280000
   14      H      -0.7325990000     1.1563360000    -1.4087710000
   15      H      -2.2103900000     1.9298260000    -0.7950950000
   16      H      -0.6658430000    -0.2952270000     0.6220900000
   17      H      -2.1363580000     0.4645300000     1.2168550000
   18      H      -1.9043390000    -1.1186390000    -1.4036860000
   19      H      -3.3765290000    -0.3681970000    -0.8142640000
   20      H      -1.8460430000    -2.6159220000     0.6261390000
   21      H      -3.3278750000    -1.8621560000     1.2213900000
   22      H      -3.3571800000    -2.8101730000    -0.2696650000
 ----------------------------------------------------------------

   19    -350.2157379966      5.10e-10  Convergence criterion met
 Total energy in the final basis set =     -350.2157379966

                    Orbital Energies (a.u.)
 --------------------------------------------------------------

 Alpha MOs
 -- Occupied --
-18.9045 -10.0389 -10.0313 -10.0247  -9.9987  -9.9848  -9.9799  -9.9746
 -0.9762  -0.7910  -0.7409  -0.6723  -0.5841  -0.5542  -0.5377  -0.4911
 -0.4807  -0.4445  -0.4332  -0.4331  -0.4037  -0.3962  -0.3787  -0.3645
 -0.3327  -0.3266  -0.3027  -0.2969  -0.2943  -0.2534  -0.1668  -0.1665

          Ground-State Mulliken Net Atomic Charges

     Atom                 Charge (a.u.)
  ----------------------------------------
      1 C                    -0.197983
      2 C                    -1.095991
      3 H                     0.381829
      4 C                     0.323985
      5 H                     0.194939
      6 H                     0.196807
      7 H                     0.192099
      8 H                     0.271399
      9 O                    -0.261811
     10 C                    -0.606317
     11 C                    -0.046613
     12 C                    -0.103556
     13 C                    -0.715663
     14 H                     0.196493
     15 H                     0.168519
     16 H                     0.107712
     17 H                     0.186152
     18 H                     0.156102
     19 H                     0.147295
     20 H                     0.172320
     21 H                     0.161497
     22 H                     0.170787
  ----------------------------------------
  Sum of atomic charges =     0.000000

                    Cartesian Multipole Moments
 -----------------------------------------------------------------
    Charge (ESU x 10^10)
                 0.0000
    Dipole Moment (Debye)
         X      -0.6774      Y      -0.2538      Z      -1.7293
       Tot       1.8745
    Quadrupole Moments (Debye-Ang)
        XX     -44.0901     XY      -8.3137     YY     -45.9769
        XZ      -1.0183     YZ      -2.6167     ZZ     -55.2486

 Total job time:  391.87s(wall), 4616.90s(cpu)
        *  Thank you very much for using Q-Chem.  Have a nice day.  *
