 Q-Chem 5.4, Q-Chem, Inc., Pleasanton, CA (2021)
 Q-Chem 5.4.0 for Intel X86 EM64T Linux

User input:
--------------------------------------------------------------
$molecule
0 1
C	        3.2325150000        -0.3085370000         0.0411780000
C	        2.1441140000         0.6056920000         0.2880930000
H	        1.2697830000         1.3237920000         0.4771520000
C	        4.2298570000        -1.1423380000        -0.1801670000
H	        4.2428250000        -1.9442470000         0.5637110000
H	        5.1919520000        -0.6240800000        -0.1317760000
H	        4.1455940000        -1.6025120000        -1.1689890000
H	       -0.3820270000         3.1368500000        -0.1256620000
O	       -0.4860440000         2.2923080000         0.3231290000
C	       -1.2836810000         1.4224860000        -0.4964050000
C	       -1.6050370000         0.1703110000         0.3047000000
C	       -2.4413690000        -0.8406240000        -0.4886700000
C	       -2.7622640000        -2.1040760000         0.3161280000
H	       -0.7325990000         1.1563360000        -1.4087710000
H	       -2.2103900000         1.9298260000        -0.7950950000
H	       -0.6658430000        -0.2952270000         0.6220900000
H	       -2.1363580000         0.4645300000         1.2168550000
H	       -1.9043390000        -1.1186390000        -1.4036860000
H	       -3.3765290000        -0.3681970000        -0.8142640000
H	       -1.8460430000        -2.6159220000         0.6261390000
H	       -3.3278750000        -1.8621560000         1.2213900000
H	       -3.3571800000        -2.8101730000        -0.2696650000
$end
$rem
jobtype polarizability
method tpss
basis 6-311++g**
thresh 14
scf_convergence 9
scf_algorithm diis
max_scf_cycles 200
gui 2
set_iter 30
RPA False
mem_total 40000
mem_static 2000
n_frozen_virtual 0
mom_start False
skip_scfman False
scf_guess_mix False
symmetry False
sym_ignore True
sym_tol 5
dft_d d3
xc_smart_grid True
xc_grid 000099000590
$end

--------------------------------------------------------------

             Standard Nuclear Orientation (Angstroms)
    I     Atom           X                Y                Z
 ----------------------------------------------------------------
    1      C       3.2325150000    -0.3085370000     0.0411780000
    2      C       2.1441140000     0.6056920000     0.2880930000
    3      H       1.2697830000     1.3237920000     0.4771520000
    4      C       4.2298570000    -1.1423380000    -0.1801670000
    5      H       4.2428250000    -1.9442470000     0.5637110000
    6      H       5.1919520000    -0.6240800000    -0.1317760000
    7      H       4.1455940000    -1.6025120000    -1.1689890000
    8      H      -0.3820270000     3.1368500000    -0.1256620000
    9      O      -0.4860440000     2.2923080000     0.3231290000
   10      C      -1.2836810000     1.4224860000    -0.4964050000
   11      C      -1.6050370000     0.1703110000     0.3047000000
   12      C      -2.4413690000    -0.8406240000    -0.4886700000
   13      C      -2.7622640000    -2.1040760000     0.3161280000
   14      H      -0.7325990000     1.1563360000    -1.4087710000
   15      H      -2.2103900000     1.9298260000    -0.7950950000
   16      H      -0.6658430000    -0.2952270000     0.6220900000
   17      H      -2.1363580000     0.4645300000     1.2168550000
   18      H      -1.9043390000    -1.1186390000    -1.4036860000
   19      H      -3.3765290000    -0.3681970000    -0.8142640000
   20      H      -1.8460430000    -2.6159220000     0.6261390000
   21      H      -3.3278750000    -1.8621560000     1.2213900000
   22      H      -3.3571800000    -2.8101730000    -0.2696650000
 ----------------------------------------------------------------

   16    -350.4068758776      2.88e-10  Convergence criterion met
 Total energy in the final basis set =     -350.4068758776

                    Orbital Energies (a.u.)
 --------------------------------------------------------------

 Alpha MOs
 -- Occupied --
-18.8932 -10.0353 -10.0120 -10.0076 -10.0024  -9.9842  -9.9792  -9.9744
 -0.9662  -0.7474  -0.7397  -0.6702  -0.5983  -0.5816  -0.5369  -0.4822
 -0.4733  -0.4422  -0.4077  -0.4076  -0.4074  -0.3940  -0.3900  -0.3639
 -0.3318  -0.3235  -0.3020  -0.2951  -0.2923  -0.2454  -0.1960  -0.1959

          Ground-State Mulliken Net Atomic Charges

     Atom                 Charge (a.u.)
  ----------------------------------------
      1 C                     0.691286
      2 C                    -1.684177
      3 H                     0.325739
      4 C                     0.114057
      5 H                     0.189475
      6 H                     0.190926
      7 H                     0.187077
      8 H                     0.263784
      9 O                    -0.267801
     10 C                    -0.586400
     11 C                    -0.074210
     12 C                    -0.097414
     13 C                    -0.716464
     14 H                     0.189764
     15 H                     0.168108
     16 H                     0.115231
     17 H                     0.186089
     18 H                     0.154623
     19 H                     0.147579
     20 H                     0.170203
     21 H                     0.161926
     22 H                     0.170597
  ----------------------------------------
  Sum of atomic charges =     0.000000

                    Cartesian Multipole Moments
 -----------------------------------------------------------------
    Charge (ESU x 10^10)
                 0.0000
    Dipole Moment (Debye)
         X      -0.5261      Y      -0.2023      Z      -1.6347
       Tot       1.7292
    Quadrupole Moments (Debye-Ang)
        XX     -45.1934     XY      -6.6589     YY     -46.5987
        XZ      -0.6710     YZ      -2.7355     ZZ     -54.6985

 Total job time:  366.05s(wall), 4308.10s(cpu)
        *  Thank you very much for using Q-Chem.  Have a nice day.  *
