 Q-Chem 5.4, Q-Chem, Inc., Pleasanton, CA (2021)
 Q-Chem 5.4.0 for Intel X86 EM64T Linux

User input:
--------------------------------------------------------------
$molecule
0 1
C	        2.9995390000        -0.1137640000         0.0928830000
C	        2.3110380000         0.4653720000         0.2500900000
H	        1.5702330000         1.0764430000         0.4118380000
C	        4.2298570000        -1.1423380000        -0.1801670000
H	        4.2428250000        -1.9442470000         0.5637110000
H	        5.1919520000        -0.6240800000        -0.1317760000
H	        4.1455940000        -1.6025120000        -1.1689890000
H	       -0.3820270000         3.1368500000        -0.1256620000
O	       -0.4860440000         2.2923080000         0.3231290000
C	       -1.2836810000         1.4224860000        -0.4964050000
C	       -1.6050370000         0.1703110000         0.3047000000
C	       -2.4413690000        -0.8406240000        -0.4886700000
C	       -2.7622640000        -2.1040760000         0.3161280000
H	       -0.7325990000         1.1563360000        -1.4087710000
H	       -2.2103900000         1.9298260000        -0.7950950000
H	       -0.6658430000        -0.2952270000         0.6220900000
H	       -2.1363580000         0.4645300000         1.2168550000
H	       -1.9043390000        -1.1186390000        -1.4036860000
H	       -3.3765290000        -0.3681970000        -0.8142640000
H	       -1.8460430000        -2.6159220000         0.6261390000
H	       -3.3278750000        -1.8621560000         1.2213900000
H	       -3.3571800000        -2.8101730000        -0.2696650000
$end
$rem
jobtype polarizability
method tpss
basis 6-311++g**
thresh 14
scf_convergence 9
scf_algorithm diis
max_scf_cycles 200
gui 2
set_iter 30
RPA False
mem_total 40000
mem_static 2000
n_frozen_virtual 0
mom_start False
skip_scfman False
scf_guess_mix False
symmetry False
sym_ignore True
sym_tol 5
dft_d d3
xc_smart_grid True
xc_grid 000099000590
$end

--------------------------------------------------------------

             Standard Nuclear Orientation (Angstroms)
    I     Atom           X                Y                Z
 ----------------------------------------------------------------
    1      C       2.9995390000    -0.1137640000     0.0928830000
    2      C       2.3110380000     0.4653720000     0.2500900000
    3      H       1.5702330000     1.0764430000     0.4118380000
    4      C       4.2298570000    -1.1423380000    -0.1801670000
    5      H       4.2428250000    -1.9442470000     0.5637110000
    6      H       5.1919520000    -0.6240800000    -0.1317760000
    7      H       4.1455940000    -1.6025120000    -1.1689890000
    8      H      -0.3820270000     3.1368500000    -0.1256620000
    9      O      -0.4860440000     2.2923080000     0.3231290000
   10      C      -1.2836810000     1.4224860000    -0.4964050000
   11      C      -1.6050370000     0.1703110000     0.3047000000
   12      C      -2.4413690000    -0.8406240000    -0.4886700000
   13      C      -2.7622640000    -2.1040760000     0.3161280000
   14      H      -0.7325990000     1.1563360000    -1.4087710000
   15      H      -2.2103900000     1.9298260000    -0.7950950000
   16      H      -0.6658430000    -0.2952270000     0.6220900000
   17      H      -2.1363580000     0.4645300000     1.2168550000
   18      H      -1.9043390000    -1.1186390000    -1.4036860000
   19      H      -3.3765290000    -0.3681970000    -0.8142640000
   20      H      -1.8460430000    -2.6159220000     0.6261390000
   21      H      -3.3278750000    -1.8621560000     1.2213900000
   22      H      -3.3571800000    -2.8101730000    -0.2696650000
 ----------------------------------------------------------------

   16    -350.1673839883      2.02e-10  Convergence criterion met
 Total energy in the final basis set =     -350.1673839883

                    Orbital Energies (a.u.)
 --------------------------------------------------------------

 Alpha MOs
 -- Occupied --
-18.8819 -10.0317 -10.0030  -9.9840  -9.9787  -9.9747  -9.9176  -9.8770
 -0.9557  -0.7388  -0.7133  -0.6683  -0.6431  -0.5794  -0.5358  -0.4700
 -0.4635  -0.4389  -0.3937  -0.3908  -0.3754  -0.3753  -0.3716  -0.3620
 -0.3307  -0.3193  -0.3018  -0.2949  -0.2889  -0.2872  -0.2863  -0.2358

          Ground-State Mulliken Net Atomic Charges

     Atom                 Charge (a.u.)
  ----------------------------------------
      1 C                     0.277982
      2 C                    -0.057975
      3 H                     0.168386
      4 C                    -0.877228
      5 H                     0.172357
      6 H                     0.173085
      7 H                     0.170458
      8 H                     0.251595
      9 O                    -0.259307
     10 C                    -0.556825
     11 C                    -0.116507
     12 C                    -0.088302
     13 C                    -0.717406
     14 H                     0.179656
     15 H                     0.167301
     16 H                     0.127956
     17 H                     0.184946
     18 H                     0.152040
     19 H                     0.148016
     20 H                     0.166552
     21 H                     0.162793
     22 H                     0.170426
  ----------------------------------------
  Sum of atomic charges =     0.000000

                    Cartesian Multipole Moments
 -----------------------------------------------------------------
    Charge (ESU x 10^10)
                -0.0000
    Dipole Moment (Debye)
         X      -0.5600      Y       0.0090      Z      -1.5103
       Tot       1.6108
    Quadrupole Moments (Debye-Ang)
        XX     -46.8929     XY      -3.6723     YY     -46.5127
        XZ      -0.0143     YZ      -3.0748     ZZ     -52.7139

 Total job time:  341.47s(wall), 4012.98s(cpu)
        *  Thank you very much for using Q-Chem.  Have a nice day.  *
