 Q-Chem 5.4, Q-Chem, Inc., Pleasanton, CA (2021)
 Q-Chem 5.4.0 for Intel X86 EM64T Linux

User input:
--------------------------------------------------------------
$molecule
0 1
C	        3.2145940000        -0.2935550000         0.0451550000
C	        2.1569630000         0.5949040000         0.2851840000
H	        1.2929380000         1.3048090000         0.4721650000
C	        4.2298570000        -1.1423380000        -0.1801670000
H	        4.2428250000        -1.9442470000         0.5637110000
H	        5.1919520000        -0.6240800000        -0.1317760000
H	        4.1455940000        -1.6025120000        -1.1689890000
H	       -0.3820270000         3.1368500000        -0.1256620000
O	       -0.4860440000         2.2923080000         0.3231290000
C	       -1.2836810000         1.4224860000        -0.4964050000
C	       -1.6050370000         0.1703110000         0.3047000000
C	       -2.4413690000        -0.8406240000        -0.4886700000
C	       -2.7622640000        -2.1040760000         0.3161280000
H	       -0.7325990000         1.1563360000        -1.4087710000
H	       -2.2103900000         1.9298260000        -0.7950950000
H	       -0.6658430000        -0.2952270000         0.6220900000
H	       -2.1363580000         0.4645300000         1.2168550000
H	       -1.9043390000        -1.1186390000        -1.4036860000
H	       -3.3765290000        -0.3681970000        -0.8142640000
H	       -1.8460430000        -2.6159220000         0.6261390000
H	       -3.3278750000        -1.8621560000         1.2213900000
H	       -3.3571800000        -2.8101730000        -0.2696650000
$end
$rem
jobtype polarizability
method tpss
basis 6-311++g**
thresh 14
scf_convergence 9
scf_algorithm diis
max_scf_cycles 200
gui 2
set_iter 30
RPA False
mem_total 40000
mem_static 2000
n_frozen_virtual 0
mom_start False
skip_scfman False
scf_guess_mix False
symmetry False
sym_ignore True
sym_tol 5
dft_d d3
xc_smart_grid True
xc_grid 000099000590
$end

--------------------------------------------------------------

             Standard Nuclear Orientation (Angstroms)
    I     Atom           X                Y                Z
 ----------------------------------------------------------------
    1      C       3.2145940000    -0.2935550000     0.0451550000
    2      C       2.1569630000     0.5949040000     0.2851840000
    3      H       1.2929380000     1.3048090000     0.4721650000
    4      C       4.2298570000    -1.1423380000    -0.1801670000
    5      H       4.2428250000    -1.9442470000     0.5637110000
    6      H       5.1919520000    -0.6240800000    -0.1317760000
    7      H       4.1455940000    -1.6025120000    -1.1689890000
    8      H      -0.3820270000     3.1368500000    -0.1256620000
    9      O      -0.4860440000     2.2923080000     0.3231290000
   10      C      -1.2836810000     1.4224860000    -0.4964050000
   11      C      -1.6050370000     0.1703110000     0.3047000000
   12      C      -2.4413690000    -0.8406240000    -0.4886700000
   13      C      -2.7622640000    -2.1040760000     0.3161280000
   14      H      -0.7325990000     1.1563360000    -1.4087710000
   15      H      -2.2103900000     1.9298260000    -0.7950950000
   16      H      -0.6658430000    -0.2952270000     0.6220900000
   17      H      -2.1363580000     0.4645300000     1.2168550000
   18      H      -1.9043390000    -1.1186390000    -1.4036860000
   19      H      -3.3765290000    -0.3681970000    -0.8142640000
   20      H      -1.8460430000    -2.6159220000     0.6261390000
   21      H      -3.3278750000    -1.8621560000     1.2213900000
   22      H      -3.3571800000    -2.8101730000    -0.2696650000
 ----------------------------------------------------------------

   16    -350.4304194308      2.67e-10  Convergence criterion met
 Total energy in the final basis set =     -350.4304194308

                    Orbital Energies (a.u.)
 --------------------------------------------------------------

 Alpha MOs
 -- Occupied --
-18.8919 -10.0349 -10.0071 -10.0027 -10.0009  -9.9842  -9.9791  -9.9744
 -0.9650  -0.7409  -0.7396  -0.6700  -0.6063  -0.5814  -0.5368  -0.4809
 -0.4722  -0.4418  -0.4082  -0.4040  -0.4039  -0.3939  -0.3906  -0.3637
 -0.3317  -0.3230  -0.3020  -0.2950  -0.2920  -0.2443  -0.2012  -0.2011

          Ground-State Mulliken Net Atomic Charges

     Atom                 Charge (a.u.)
  ----------------------------------------
      1 C                     0.880611
      2 C                    -1.825967
      3 H                     0.315173
      4 C                     0.082259
      5 H                     0.188270
      6 H                     0.189696
      7 H                     0.185897
      8 H                     0.262710
      9 O                    -0.267588
     10 C                    -0.583806
     11 C                    -0.078069
     12 C                    -0.096627
     13 C                    -0.716591
     14 H                     0.188793
     15 H                     0.168161
     16 H                     0.116563
     17 H                     0.186034
     18 H                     0.154393
     19 H                     0.147619
     20 H                     0.169885
     21 H                     0.161998
     22 H                     0.170585
  ----------------------------------------
  Sum of atomic charges =     0.000000

                    Cartesian Multipole Moments
 -----------------------------------------------------------------
    Charge (ESU x 10^10)
                -0.0000
    Dipole Moment (Debye)
         X      -0.5216      Y      -0.1851      Z      -1.6209
       Tot       1.7129
    Quadrupole Moments (Debye-Ang)
        XX     -45.3987     XY      -6.3892     YY     -46.6607
        XZ      -0.6128     YZ      -2.7589     ZZ     -54.5878

 Total job time:  364.21s(wall), 4291.30s(cpu)
        *  Thank you very much for using Q-Chem.  Have a nice day.  *
