 Q-Chem 5.4, Q-Chem, Inc., Pleasanton, CA (2021)
 Q-Chem 5.4.0 for Intel X86 EM64T Linux

User input:
--------------------------------------------------------------
$molecule
0 1
C	        3.0712240000        -0.1736940000         0.0769740000
C	        2.2597050000         0.5085680000         0.2618320000
H	        1.4779090000         1.1526710000         0.4320410000
C	        4.2298570000        -1.1423380000        -0.1801670000
H	        4.2428250000        -1.9442470000         0.5637110000
H	        5.1919520000        -0.6240800000        -0.1317760000
H	        4.1455940000        -1.6025120000        -1.1689890000
H	       -0.3820270000         3.1368500000        -0.1256620000
O	       -0.4860440000         2.2923080000         0.3231290000
C	       -1.2836810000         1.4224860000        -0.4964050000
C	       -1.6050370000         0.1703110000         0.3047000000
C	       -2.4413690000        -0.8406240000        -0.4886700000
C	       -2.7622640000        -2.1040760000         0.3161280000
H	       -0.7325990000         1.1563360000        -1.4087710000
H	       -2.2103900000         1.9298260000        -0.7950950000
H	       -0.6658430000        -0.2952270000         0.6220900000
H	       -2.1363580000         0.4645300000         1.2168550000
H	       -1.9043390000        -1.1186390000        -1.4036860000
H	       -3.3765290000        -0.3681970000        -0.8142640000
H	       -1.8460430000        -2.6159220000         0.6261390000
H	       -3.3278750000        -1.8621560000         1.2213900000
H	       -3.3571800000        -2.8101730000        -0.2696650000
$end
$rem
jobtype polarizability
method tpss
basis 6-311++g**
thresh 14
scf_convergence 9
scf_algorithm diis
max_scf_cycles 200
gui 2
set_iter 30
RPA False
mem_total 40000
mem_static 2000
n_frozen_virtual 0
mom_start False
skip_scfman False
scf_guess_mix False
symmetry False
sym_ignore True
sym_tol 5
dft_d d3
xc_smart_grid True
xc_grid 000099000590
$end

--------------------------------------------------------------

             Standard Nuclear Orientation (Angstroms)
    I     Atom           X                Y                Z
 ----------------------------------------------------------------
    1      C       3.0712240000    -0.1736940000     0.0769740000
    2      C       2.2597050000     0.5085680000     0.2618320000
    3      H       1.4779090000     1.1526710000     0.4320410000
    4      C       4.2298570000    -1.1423380000    -0.1801670000
    5      H       4.2428250000    -1.9442470000     0.5637110000
    6      H       5.1919520000    -0.6240800000    -0.1317760000
    7      H       4.1455940000    -1.6025120000    -1.1689890000
    8      H      -0.3820270000     3.1368500000    -0.1256620000
    9      O      -0.4860440000     2.2923080000     0.3231290000
   10      C      -1.2836810000     1.4224860000    -0.4964050000
   11      C      -1.6050370000     0.1703110000     0.3047000000
   12      C      -2.4413690000    -0.8406240000    -0.4886700000
   13      C      -2.7622640000    -2.1040760000     0.3161280000
   14      H      -0.7325990000     1.1563360000    -1.4087710000
   15      H      -2.2103900000     1.9298260000    -0.7950950000
   16      H      -0.6658430000    -0.2952270000     0.6220900000
   17      H      -2.1363580000     0.4645300000     1.2168550000
   18      H      -1.9043390000    -1.1186390000    -1.4036860000
   19      H      -3.3765290000    -0.3681970000    -0.8142640000
   20      H      -1.8460430000    -2.6159220000     0.6261390000
   21      H      -3.3278750000    -1.8621560000     1.2213900000
   22      H      -3.3571800000    -2.8101730000    -0.2696650000
 ----------------------------------------------------------------

   16    -350.4422070970      2.65e-10  Convergence criterion met
 Total energy in the final basis set =     -350.4422070970

                    Orbital Energies (a.u.)
 --------------------------------------------------------------

 Alpha MOs
 -- Occupied --
-18.8844 -10.0325 -10.0041  -9.9841  -9.9788  -9.9746  -9.9438  -9.9213
 -0.9581  -0.7390  -0.7156  -0.6687  -0.6496  -0.5799  -0.5361  -0.4739
 -0.4666  -0.4393  -0.3961  -0.3925  -0.3904  -0.3818  -0.3817  -0.3625
 -0.3310  -0.3203  -0.3018  -0.2946  -0.2895  -0.2512  -0.2511  -0.2380

          Ground-State Mulliken Net Atomic Charges

     Atom                 Charge (a.u.)
  ----------------------------------------
      1 C                     0.411668
      2 C                    -0.211615
      3 H                     0.226041
      4 C                    -0.921677
      5 H                     0.175709
      6 H                     0.176852
      7 H                     0.173631
      8 H                     0.254685
      9 O                    -0.268570
     10 C                    -0.562645
     11 C                    -0.108716
     12 C                    -0.089463
     13 C                    -0.717047
     14 H                     0.182151
     15 H                     0.166617
     16 H                     0.125589
     17 H                     0.185392
     18 H                     0.152791
     19 H                     0.148019
     20 H                     0.167607
     21 H                     0.162515
     22 H                     0.170468
  ----------------------------------------
  Sum of atomic charges =     0.000000

                    Cartesian Multipole Moments
 -----------------------------------------------------------------
    Charge (ESU x 10^10)
                 0.0000
    Dipole Moment (Debye)
         X      -0.5365      Y      -0.0521      Z      -1.5387
       Tot       1.6303
    Quadrupole Moments (Debye-Ang)
        XX     -46.5874     XY      -4.4942     YY     -46.7288
        XZ      -0.1973     YZ      -2.9642     ZZ     -53.4519

 Total job time:  353.61s(wall), 4166.64s(cpu)
        *  Thank you very much for using Q-Chem.  Have a nice day.  *
