 Q-Chem 5.4, Q-Chem, Inc., Pleasanton, CA (2021)
 Q-Chem 5.4.0 for Intel X86 EM64T Linux

User input:
--------------------------------------------------------------
$molecule
0 1
C	        3.0891450000        -0.1886770000         0.0729960000
C	        2.2468670000         0.5193640000         0.2647600000
H	        1.4548120000         1.1717120000         0.4370770000
C	        4.2298570000        -1.1423380000        -0.1801670000
H	        4.2428250000        -1.9442470000         0.5637110000
H	        5.1919520000        -0.6240800000        -0.1317760000
H	        4.1455940000        -1.6025120000        -1.1689890000
H	       -0.3820270000         3.1368500000        -0.1256620000
O	       -0.4860440000         2.2923080000         0.3231290000
C	       -1.2836810000         1.4224860000        -0.4964050000
C	       -1.6050370000         0.1703110000         0.3047000000
C	       -2.4413690000        -0.8406240000        -0.4886700000
C	       -2.7622640000        -2.1040760000         0.3161280000
H	       -0.7325990000         1.1563360000        -1.4087710000
H	       -2.2103900000         1.9298260000        -0.7950950000
H	       -0.6658430000        -0.2952270000         0.6220900000
H	       -2.1363580000         0.4645300000         1.2168550000
H	       -1.9043390000        -1.1186390000        -1.4036860000
H	       -3.3765290000        -0.3681970000        -0.8142640000
H	       -1.8460430000        -2.6159220000         0.6261390000
H	       -3.3278750000        -1.8621560000         1.2213900000
H	       -3.3571800000        -2.8101730000        -0.2696650000
$end
$rem
jobtype polarizability
method tpss
basis 6-311++g**
thresh 14
scf_convergence 9
scf_algorithm diis
max_scf_cycles 200
gui 2
set_iter 30
RPA False
mem_total 40000
mem_static 2000
n_frozen_virtual 0
mom_start False
skip_scfman False
scf_guess_mix False
symmetry False
sym_ignore True
sym_tol 5
dft_d d3
xc_smart_grid True
xc_grid 000099000590
$end

--------------------------------------------------------------

             Standard Nuclear Orientation (Angstroms)
    I     Atom           X                Y                Z
 ----------------------------------------------------------------
    1      C       3.0891450000    -0.1886770000     0.0729960000
    2      C       2.2468670000     0.5193640000     0.2647600000
    3      H       1.4548120000     1.1717120000     0.4370770000
    4      C       4.2298570000    -1.1423380000    -0.1801670000
    5      H       4.2428250000    -1.9442470000     0.5637110000
    6      H       5.1919520000    -0.6240800000    -0.1317760000
    7      H       4.1455940000    -1.6025120000    -1.1689890000
    8      H      -0.3820270000     3.1368500000    -0.1256620000
    9      O      -0.4860440000     2.2923080000     0.3231290000
   10      C      -1.2836810000     1.4224860000    -0.4964050000
   11      C      -1.6050370000     0.1703110000     0.3047000000
   12      C      -2.4413690000    -0.8406240000    -0.4886700000
   13      C      -2.7622640000    -2.1040760000     0.3161280000
   14      H      -0.7325990000     1.1563360000    -1.4087710000
   15      H      -2.2103900000     1.9298260000    -0.7950950000
   16      H      -0.6658430000    -0.2952270000     0.6220900000
   17      H      -2.1363580000     0.4645300000     1.2168550000
   18      H      -1.9043390000    -1.1186390000    -1.4036860000
   19      H      -3.3765290000    -0.3681970000    -0.8142640000
   20      H      -1.8460430000    -2.6159220000     0.6261390000
   21      H      -3.3278750000    -1.8621560000     1.2213900000
   22      H      -3.3571800000    -2.8101730000    -0.2696650000
 ----------------------------------------------------------------

   16    -350.4683844825      2.80e-10  Convergence criterion met
 Total energy in the final basis set =     -350.4683844825

                    Orbital Energies (a.u.)
 --------------------------------------------------------------

 Alpha MOs
 -- Occupied --
-18.8851 -10.0327 -10.0041  -9.9841  -9.9789  -9.9746  -9.9531  -9.9330
 -0.9588  -0.7391  -0.7153  -0.6688  -0.6485  -0.5800  -0.5362  -0.4747
 -0.4672  -0.4395  -0.3991  -0.3932  -0.3909  -0.3840  -0.3838  -0.3626
 -0.3311  -0.3206  -0.3018  -0.2947  -0.2898  -0.2438  -0.2437  -0.2386

          Ground-State Mulliken Net Atomic Charges

     Atom                 Charge (a.u.)
  ----------------------------------------
      1 C                     0.437862
      2 C                    -0.247689
      3 H                     0.238583
      4 C                    -0.926801
      5 H                     0.176690
      6 H                     0.177877
      7 H                     0.174579
      8 H                     0.255509
      9 O                    -0.270561
     10 C                    -0.564356
     11 C                    -0.106240
     12 C                    -0.090002
     13 C                    -0.716949
     14 H                     0.182867
     15 H                     0.166462
     16 H                     0.124847
     17 H                     0.185511
     18 H                     0.152996
     19 H                     0.148012
     20 H                     0.167877
     21 H                     0.162447
     22 H                     0.170479
  ----------------------------------------
  Sum of atomic charges =     0.000000

                    Cartesian Multipole Moments
 -----------------------------------------------------------------
    Charge (ESU x 10^10)
                 0.0000
    Dipole Moment (Debye)
         X      -0.5334      Y      -0.0666      Z      -1.5465
       Tot       1.6372
    Quadrupole Moments (Debye-Ang)
        XX     -46.4941     XY      -4.7043     YY     -46.7603
        XZ      -0.2438     YZ      -2.9374     ZZ     -53.6190

 Total job time:  356.60s(wall), 4196.34s(cpu)
        *  Thank you very much for using Q-Chem.  Have a nice day.  *
