 Q-Chem 5.4, Q-Chem, Inc., Pleasanton, CA (2021)
 Q-Chem 5.4.0 for Intel X86 EM64T Linux

User input:
--------------------------------------------------------------
$molecule
0 1
C	        3.1787520000        -0.2635890000         0.0531100000
C	        2.1826560000         0.5733260000         0.2793590000
H	        1.3392250000         1.2668190000         0.4621700000
C	        4.2298570000        -1.1423380000        -0.1801670000
H	        4.2428250000        -1.9442470000         0.5637110000
H	        5.1919520000        -0.6240800000        -0.1317760000
H	        4.1455940000        -1.6025120000        -1.1689890000
H	       -0.3820270000         3.1368500000        -0.1256620000
O	       -0.4860440000         2.2923080000         0.3231290000
C	       -1.2836810000         1.4224860000        -0.4964050000
C	       -1.6050370000         0.1703110000         0.3047000000
C	       -2.4413690000        -0.8406240000        -0.4886700000
C	       -2.7622640000        -2.1040760000         0.3161280000
H	       -0.7325990000         1.1563360000        -1.4087710000
H	       -2.2103900000         1.9298260000        -0.7950950000
H	       -0.6658430000        -0.2952270000         0.6220900000
H	       -2.1363580000         0.4645300000         1.2168550000
H	       -1.9043390000        -1.1186390000        -1.4036860000
H	       -3.3765290000        -0.3681970000        -0.8142640000
H	       -1.8460430000        -2.6159220000         0.6261390000
H	       -3.3278750000        -1.8621560000         1.2213900000
H	       -3.3571800000        -2.8101730000        -0.2696650000
$end
$rem
jobtype polarizability
method tpss
basis 6-311++g**
thresh 14
scf_convergence 9
scf_algorithm diis
max_scf_cycles 200
gui 2
set_iter 30
RPA False
mem_total 40000
mem_static 2000
n_frozen_virtual 0
mom_start False
skip_scfman False
scf_guess_mix False
symmetry False
sym_ignore True
sym_tol 5
dft_d d3
xc_smart_grid True
xc_grid 000099000590
$end

--------------------------------------------------------------

             Standard Nuclear Orientation (Angstroms)
    I     Atom           X                Y                Z
 ----------------------------------------------------------------
    1      C       3.1787520000    -0.2635890000     0.0531100000
    2      C       2.1826560000     0.5733260000     0.2793590000
    3      H       1.3392250000     1.2668190000     0.4621700000
    4      C       4.2298570000    -1.1423380000    -0.1801670000
    5      H       4.2428250000    -1.9442470000     0.5637110000
    6      H       5.1919520000    -0.6240800000    -0.1317760000
    7      H       4.1455940000    -1.6025120000    -1.1689890000
    8      H      -0.3820270000     3.1368500000    -0.1256620000
    9      O      -0.4860440000     2.2923080000     0.3231290000
   10      C      -1.2836810000     1.4224860000    -0.4964050000
   11      C      -1.6050370000     0.1703110000     0.3047000000
   12      C      -2.4413690000    -0.8406240000    -0.4886700000
   13      C      -2.7622640000    -2.1040760000     0.3161280000
   14      H      -0.7325990000     1.1563360000    -1.4087710000
   15      H      -2.2103900000     1.9298260000    -0.7950950000
   16      H      -0.6658430000    -0.2952270000     0.6220900000
   17      H      -2.1363580000     0.4645300000     1.2168550000
   18      H      -1.9043390000    -1.1186390000    -1.4036860000
   19      H      -3.3765290000    -0.3681970000    -0.8142640000
   20      H      -1.8460430000    -2.6159220000     0.6261390000
   21      H      -3.3278750000    -1.8621560000     1.2213900000
   22      H      -3.3571800000    -2.8101730000    -0.2696650000
 ----------------------------------------------------------------

   16    -350.4677648962      2.57e-10  Convergence criterion met
 Total energy in the final basis set =     -350.4677648962

                    Orbital Energies (a.u.)
 --------------------------------------------------------------

 Alpha MOs
 -- Occupied --
-18.8896 -10.0342 -10.0033  -9.9949  -9.9850  -9.9842  -9.9790  -9.9745
 -0.9629  -0.7394  -0.7292  -0.6696  -0.6220  -0.5809  -0.5366  -0.4788
 -0.4704  -0.4410  -0.4086  -0.3974  -0.3972  -0.3937  -0.3912  -0.3634
 -0.3315  -0.3222  -0.3019  -0.2949  -0.2913  -0.2425  -0.2122  -0.2120

          Ground-State Mulliken Net Atomic Charges

     Atom                 Charge (a.u.)
  ----------------------------------------
      1 C                     0.446821
      2 C                    -0.370366
      3 H                     0.296619
      4 C                    -0.890590
      5 H                     0.182870
      6 H                     0.184114
      7 H                     0.180617
      8 H                     0.260044
      9 O                    -0.277662
     10 C                    -0.574173
     11 C                    -0.091273
     12 C                    -0.093687
     13 C                    -0.716450
     14 H                     0.186916
     15 H                     0.165892
     16 H                     0.120423
     17 H                     0.185999
     18 H                     0.154053
     19 H                     0.147915
     20 H                     0.169282
     21 H                     0.162109
     22 H                     0.170528
  ----------------------------------------
  Sum of atomic charges =     0.000000

                    Cartesian Multipole Moments
 -----------------------------------------------------------------
    Charge (ESU x 10^10)
                -0.0000
    Dipole Moment (Debye)
         X      -0.5206      Y      -0.1491      Z      -1.5960
       Tot       1.6854
    Quadrupole Moments (Debye-Ang)
        XX     -45.7859     XY      -5.8672     YY     -46.7492
        XZ      -0.4995     YZ      -2.8075     ZZ     -54.3457

 Total job time:  358.38s(wall), 4224.08s(cpu)
        *  Thank you very much for using Q-Chem.  Have a nice day.  *
