 Q-Chem 5.4, Q-Chem, Inc., Pleasanton, CA (2021)
 Q-Chem 5.4.0 for Intel X86 EM64T Linux

User input:
--------------------------------------------------------------
$molecule
0 1
C	        3.1249880000        -0.2186420000         0.0650420000
C	        2.2211870000         0.5409520000         0.2706070000
H	        1.4085980000         1.2097760000         0.4471330000
C	        4.2298570000        -1.1423380000        -0.1801670000
H	        4.2428250000        -1.9442470000         0.5637110000
H	        5.1919520000        -0.6240800000        -0.1317760000
H	        4.1455940000        -1.6025120000        -1.1689890000
H	       -0.3820270000         3.1368500000        -0.1256620000
O	       -0.4860440000         2.2923080000         0.3231290000
C	       -1.2836810000         1.4224860000        -0.4964050000
C	       -1.6050370000         0.1703110000         0.3047000000
C	       -2.4413690000        -0.8406240000        -0.4886700000
C	       -2.7622640000        -2.1040760000         0.3161280000
H	       -0.7325990000         1.1563360000        -1.4087710000
H	       -2.2103900000         1.9298260000        -0.7950950000
H	       -0.6658430000        -0.2952270000         0.6220900000
H	       -2.1363580000         0.4645300000         1.2168550000
H	       -1.9043390000        -1.1186390000        -1.4036860000
H	       -3.3765290000        -0.3681970000        -0.8142640000
H	       -1.8460430000        -2.6159220000         0.6261390000
H	       -3.3278750000        -1.8621560000         1.2213900000
H	       -3.3571800000        -2.8101730000        -0.2696650000
$end
$rem
jobtype polarizability
method tpss
basis 6-311++g**
thresh 14
scf_convergence 9
scf_algorithm diis
max_scf_cycles 200
gui 2
set_iter 30
RPA False
mem_total 40000
mem_static 2000
n_frozen_virtual 0
mom_start False
skip_scfman False
scf_guess_mix False
symmetry False
sym_ignore True
sym_tol 5
dft_d d3
xc_smart_grid True
xc_grid 000099000590
$end

--------------------------------------------------------------

             Standard Nuclear Orientation (Angstroms)
    I     Atom           X                Y                Z
 ----------------------------------------------------------------
    1      C       3.1249880000    -0.2186420000     0.0650420000
    2      C       2.2211870000     0.5409520000     0.2706070000
    3      H       1.4085980000     1.2097760000     0.4471330000
    4      C       4.2298570000    -1.1423380000    -0.1801670000
    5      H       4.2428250000    -1.9442470000     0.5637110000
    6      H       5.1919520000    -0.6240800000    -0.1317760000
    7      H       4.1455940000    -1.6025120000    -1.1689890000
    8      H      -0.3820270000     3.1368500000    -0.1256620000
    9      O      -0.4860440000     2.2923080000     0.3231290000
   10      C      -1.2836810000     1.4224860000    -0.4964050000
   11      C      -1.6050370000     0.1703110000     0.3047000000
   12      C      -2.4413690000    -0.8406240000    -0.4886700000
   13      C      -2.7622640000    -2.1040760000     0.3161280000
   14      H      -0.7325990000     1.1563360000    -1.4087710000
   15      H      -2.2103900000     1.9298260000    -0.7950950000
   16      H      -0.6658430000    -0.2952270000     0.6220900000
   17      H      -2.1363580000     0.4645300000     1.2168550000
   18      H      -1.9043390000    -1.1186390000    -1.4036860000
   19      H      -3.3765290000    -0.3681970000    -0.8142640000
   20      H      -1.8460430000    -2.6159220000     0.6261390000
   21      H      -3.3278750000    -1.8621560000     1.2213900000
   22      H      -3.3571800000    -2.8101730000    -0.2696650000
 ----------------------------------------------------------------

   16    -350.4894664315      2.82e-10  Convergence criterion met
 Total energy in the final basis set =     -350.4894664315

                    Orbital Energies (a.u.)
 --------------------------------------------------------------

 Alpha MOs
 -- Occupied --
-18.8867 -10.0333 -10.0039  -9.9841  -9.9790  -9.9745  -9.9713  -9.9556
 -0.9603  -0.7392  -0.7175  -0.6691  -0.6415  -0.5804  -0.5363  -0.4762
 -0.4682  -0.4400  -0.4048  -0.3935  -0.3912  -0.3887  -0.3886  -0.3629
 -0.3312  -0.3212  -0.3018  -0.2947  -0.2904  -0.2401  -0.2302  -0.2301

          Ground-State Mulliken Net Atomic Charges

     Atom                 Charge (a.u.)
  ----------------------------------------
      1 C                     0.466185
      2 C                    -0.305693
      3 H                     0.262941
      4 C                    -0.927705
      5 H                     0.178897
      6 H                     0.180127
      7 H                     0.176729
      8 H                     0.257235
      9 O                    -0.274059
     10 C                    -0.568021
     11 C                    -0.100757
     12 C                    -0.091301
     13 C                    -0.716748
     14 H                     0.184391
     15 H                     0.166183
     16 H                     0.123226
     17 H                     0.185731
     18 H                     0.153415
     19 H                     0.147987
     20 H                     0.168427
     21 H                     0.162313
     22 H                     0.170499
  ----------------------------------------
  Sum of atomic charges =     0.000000

                    Cartesian Multipole Moments
 -----------------------------------------------------------------
    Charge (ESU x 10^10)
                -0.0000
    Dipole Moment (Debye)
         X      -0.5276      Y      -0.0974      Z      -1.5640
       Tot       1.6535
    Quadrupole Moments (Debye-Ang)
        XX     -46.2612     XY      -5.1449     YY     -46.7906
        XZ      -0.3409     YZ      -2.8845     ZZ     -53.9314

 Total job time:  353.70s(wall), 4168.01s(cpu)
        *  Thank you very much for using Q-Chem.  Have a nice day.  *
