 Q-Chem 5.4, Q-Chem, Inc., Pleasanton, CA (2021)
 Q-Chem 5.4.0 for Intel X86 EM64T Linux

User input:
--------------------------------------------------------------
$molecule
0 1
C	        3.0533030000        -0.1587110000         0.0809510000
C	        2.2725410000         0.4977710000         0.2589020000
H	        1.5009990000         1.1336230000         0.4269990000
C	        4.2298570000        -1.1423380000        -0.1801670000
H	        4.2428250000        -1.9442470000         0.5637110000
H	        5.1919520000        -0.6240800000        -0.1317760000
H	        4.1455940000        -1.6025120000        -1.1689890000
H	       -0.3820270000         3.1368500000        -0.1256620000
O	       -0.4860440000         2.2923080000         0.3231290000
C	       -1.2836810000         1.4224860000        -0.4964050000
C	       -1.6050370000         0.1703110000         0.3047000000
C	       -2.4413690000        -0.8406240000        -0.4886700000
C	       -2.7622640000        -2.1040760000         0.3161280000
H	       -0.7325990000         1.1563360000        -1.4087710000
H	       -2.2103900000         1.9298260000        -0.7950950000
H	       -0.6658430000        -0.2952270000         0.6220900000
H	       -2.1363580000         0.4645300000         1.2168550000
H	       -1.9043390000        -1.1186390000        -1.4036860000
H	       -3.3765290000        -0.3681970000        -0.8142640000
H	       -1.8460430000        -2.6159220000         0.6261390000
H	       -3.3278750000        -1.8621560000         1.2213900000
H	       -3.3571800000        -2.8101730000        -0.2696650000
$end
$rem
jobtype polarizability
method tpss
basis 6-311++g**
thresh 14
scf_convergence 9
scf_algorithm diis
max_scf_cycles 200
gui 2
set_iter 30
RPA False
mem_total 40000
mem_static 2000
n_frozen_virtual 0
mom_start False
skip_scfman False
scf_guess_mix False
symmetry False
sym_ignore True
sym_tol 5
dft_d d3
xc_smart_grid True
xc_grid 000099000590
$end

--------------------------------------------------------------

             Standard Nuclear Orientation (Angstroms)
    I     Atom           X                Y                Z
 ----------------------------------------------------------------
    1      C       3.0533030000    -0.1587110000     0.0809510000
    2      C       2.2725410000     0.4977710000     0.2589020000
    3      H       1.5009990000     1.1336230000     0.4269990000
    4      C       4.2298570000    -1.1423380000    -0.1801670000
    5      H       4.2428250000    -1.9442470000     0.5637110000
    6      H       5.1919520000    -0.6240800000    -0.1317760000
    7      H       4.1455940000    -1.6025120000    -1.1689890000
    8      H      -0.3820270000     3.1368500000    -0.1256620000
    9      O      -0.4860440000     2.2923080000     0.3231290000
   10      C      -1.2836810000     1.4224860000    -0.4964050000
   11      C      -1.6050370000     0.1703110000     0.3047000000
   12      C      -2.4413690000    -0.8406240000    -0.4886700000
   13      C      -2.7622640000    -2.1040760000     0.3161280000
   14      H      -0.7325990000     1.1563360000    -1.4087710000
   15      H      -2.2103900000     1.9298260000    -0.7950950000
   16      H      -0.6658430000    -0.2952270000     0.6220900000
   17      H      -2.1363580000     0.4645300000     1.2168550000
   18      H      -1.9043390000    -1.1186390000    -1.4036860000
   19      H      -3.3765290000    -0.3681970000    -0.8142640000
   20      H      -1.8460430000    -2.6159220000     0.6261390000
   21      H      -3.3278750000    -1.8621560000     1.2213900000
   22      H      -3.3571800000    -2.8101730000    -0.2696650000
 ----------------------------------------------------------------

   16    -350.4024494168      2.37e-10  Convergence criterion met
 Total energy in the final basis set =     -350.4024494168

                    Orbital Energies (a.u.)
 --------------------------------------------------------------

 Alpha MOs
 -- Occupied --
-18.8837 -10.0323 -10.0040  -9.9841  -9.9788  -9.9746  -9.9348  -9.9095
 -0.9574  -0.7389  -0.7164  -0.6686  -0.6494  -0.5798  -0.5360  -0.4731
 -0.4661  -0.4392  -0.3945  -0.3914  -0.3882  -0.3799  -0.3798  -0.3623
 -0.3309  -0.3200  -0.3017  -0.2946  -0.2892  -0.2592  -0.2590  -0.2374

          Ground-State Mulliken Net Atomic Charges

     Atom                 Charge (a.u.)
  ----------------------------------------
      1 C                     0.378530
      2 C                    -0.171131
      3 H                     0.213178
      4 C                    -0.914071
      5 H                     0.174801
      6 H                     0.175878
      7 H                     0.172760
      8 H                     0.253883
      9 O                    -0.266441
     10 C                    -0.561024
     11 C                    -0.110995
     12 C                    -0.089015
     13 C                    -0.717142
     14 H                     0.181468
     15 H                     0.166779
     16 H                     0.126281
     17 H                     0.185271
     18 H                     0.152591
     19 H                     0.148022
     20 H                     0.167339
     21 H                     0.162583
     22 H                     0.170457
  ----------------------------------------
  Sum of atomic charges =     0.000000

                    Cartesian Multipole Moments
 -----------------------------------------------------------------
    Charge (ESU x 10^10)
                 0.0000
    Dipole Moment (Debye)
         X      -0.5400      Y      -0.0379      Z      -1.5313
       Tot       1.6242
    Quadrupole Moments (Debye-Ang)
        XX     -46.6688     XY      -4.2888     YY     -46.6873
        XZ      -0.1518     YZ      -2.9913     ZZ     -53.2777

 Total job time:  348.80s(wall), 4108.59s(cpu)
        *  Thank you very much for using Q-Chem.  Have a nice day.  *
