 Q-Chem 5.4, Q-Chem, Inc., Pleasanton, CA (2021)
 Q-Chem 5.4.0 for Intel X86 EM64T Linux

User input:
--------------------------------------------------------------
$molecule
0 1
C	        0.0000030781         0.0000006772        -0.3148115739
C	       -0.0000020068         0.0000000794        -1.3562875545
H	       -0.0000037812        -0.0000011497        -2.3665906291
C	       -0.0000033960         0.0000000000         1.2425847736
H	        0.9916338986         0.2601992926         1.6323041616
H	       -0.2704868842        -0.9888840827         1.6322971256
H	       -0.7211607094         0.7286858010         1.6322999265
$end
$rem
jobtype sp
method tpss
basis 6-311++g**
thresh 14
scf_convergence 9
scf_algorithm rca_diis
max_scf_cycles 200
gui 2
set_iter 30
RPA False
mem_total 100000
mem_static 2000
n_frozen_virtual 0
mom_start False
skip_scfman False
scf_guess_mix False
symmetry False
sym_ignore True
sym_tol 5
dft_d d3
xc_smart_grid True
xc_grid 000099000590
$end

--------------------------------------------------------------

             Standard Nuclear Orientation (Angstroms)
    I     Atom           X                Y                Z
 ----------------------------------------------------------------
    1      C       0.0000030781     0.0000006772    -0.3148115739
    2      C      -0.0000020068     0.0000000794    -1.3562875545
    3      H      -0.0000037812    -0.0000011497    -2.3665906291
    4      C      -0.0000033960     0.0000000000     1.2425847736
    5      H       0.9916338986     0.2601992926     1.6323041616
    6      H      -0.2704868842    -0.9888840827     1.6322971256
    7      H      -0.7211607094     0.7286858010     1.6322999265
 ----------------------------------------------------------------

   14    -116.6284667378      7.44E-10 Convergence criterion met
 Total energy in the final basis set = -116.62846674

                    Orbital Energies (a.u.)
 --------------------------------------------------------------

 Alpha MOs
 -- Occupied --
-10.0113  -9.9473  -9.9244  -0.7253  -0.6564  -0.4859  -0.3966  -0.3857
 -0.3857  -0.2680  -0.2680

          Ground-State Mulliken Net Atomic Charges

     Atom                 Charge (a.u.)
  ----------------------------------------
      1 C                     0.411348
      2 C                    -0.118372
      3 H                     0.106642
      4 C                    -0.922578
      5 H                     0.174320
      6 H                     0.174320
      7 H                     0.174321
  ----------------------------------------
  Sum of atomic charges =     0.000000

                    Cartesian Multipole Moments
 -----------------------------------------------------------------
    Charge (ESU x 10^10)
                -0.0000
    Dipole Moment (Debye)
         X      -0.0000      Y       0.0000      Z       0.6619
       Tot       0.6619
    Quadrupole Moments (Debye-Ang)
        XX     -19.0487     XY       0.0000     YY     -19.0487
        XZ       0.0000     YZ       0.0000     ZZ     -14.3307

 Total job time:  4.31s(wall), 84.86s(cpu)
        *  Thank you very much for using Q-Chem.  Have a nice day.  *
