 Q-Chem 5.4, Q-Chem, Inc., Pleasanton, CA (2021)
 Q-Chem 5.4.0 for Intel X86 EM64T Linux

User input:
--------------------------------------------------------------
$molecule
0 1
C	        0.0000018961         0.0000005536        -0.0304675860
C	       -0.0000027575        -0.0000000103        -1.5606103106
H	       -0.0000043204        -0.0000016336        -2.7308591725
C	       -0.0000033960         0.0000000000         1.2425847736
H	        0.9916338986         0.2601992926         1.6323041616
H	       -0.2704868842        -0.9888840827         1.6322971256
H	       -0.7211607094         0.7286858010         1.6322999265
$end
$rem
jobtype sp
method tpss
basis 6-311++g**
thresh 14
scf_convergence 9
scf_algorithm rca_diis
max_scf_cycles 200
gui 2
set_iter 30
RPA False
mem_total 100000
mem_static 2000
n_frozen_virtual 0
mom_start False
skip_scfman False
scf_guess_mix False
symmetry False
sym_ignore True
sym_tol 5
dft_d d3
xc_smart_grid True
xc_grid 000099000590
$end

--------------------------------------------------------------

             Standard Nuclear Orientation (Angstroms)
    I     Atom           X                Y                Z
 ----------------------------------------------------------------
    1      C       0.0000018961     0.0000005536    -0.0304675860
    2      C      -0.0000027575    -0.0000000103    -1.5606103106
    3      H      -0.0000043204    -0.0000016336    -2.7308591725
    4      C      -0.0000033960     0.0000000000     1.2425847736
    5      H       0.9916338986     0.2601992926     1.6323041616
    6      H      -0.2704868842    -0.9888840827     1.6322971256
    7      H      -0.7211607094     0.7286858010     1.6322999265
 ----------------------------------------------------------------

   16    -116.5657149966      2.63E-10 Convergence criterion met
 Total energy in the final basis set = -116.56571500

                    Orbital Energies (a.u.)
 --------------------------------------------------------------

 Alpha MOs
 -- Occupied --
-10.0398 -10.0388 -10.0140  -0.7736  -0.5977  -0.4963  -0.4264  -0.4264
 -0.4144  -0.1999  -0.1999

          Ground-State Mulliken Net Atomic Charges

     Atom                 Charge (a.u.)
  ----------------------------------------
      1 C                     0.648610
      2 C                    -1.117672
      3 H                     0.245371
      4 C                    -0.354020
      5 H                     0.192570
      6 H                     0.192570
      7 H                     0.192571
  ----------------------------------------
  Sum of atomic charges =     0.000000

                    Cartesian Multipole Moments
 -----------------------------------------------------------------
    Charge (ESU x 10^10)
                 0.0000
    Dipole Moment (Debye)
         X      -0.0000      Y      -0.0000      Z       1.4222
       Tot       1.4222
    Quadrupole Moments (Debye-Ang)
        XX     -20.7853     XY       0.0000     YY     -20.7853
        XZ       0.0000     YZ       0.0000     ZZ     -13.1442

 Total job time:  5.07s(wall), 99.78s(cpu)
        *  Thank you very much for using Q-Chem.  Have a nice day.  *
