 Q-Chem 5.4, Q-Chem, Inc., Pleasanton, CA (2021)
 Q-Chem 5.4.0 for Intel X86 EM64T Linux

User input:
--------------------------------------------------------------
$molecule
0 1
C	        0.0000033736         0.0000007081        -0.3858975709
C	       -0.0000016825         0.0000001171        -1.3052068654
H	       -0.0000035785        -0.0000010433        -2.2755234933
C	       -0.0000033960         0.0000000000         1.2425847736
H	        0.9916338986         0.2601992926         1.6323041616
H	       -0.2704868842        -0.9888840827         1.6322971256
H	       -0.7211607094         0.7286858010         1.6322999265
$end
$rem
jobtype sp
method tpss
basis 6-311++g**
thresh 14
scf_convergence 9
scf_algorithm rca_diis
max_scf_cycles 200
gui 2
set_iter 30
RPA False
mem_total 100000
mem_static 2000
n_frozen_virtual 0
mom_start False
skip_scfman False
scf_guess_mix False
symmetry False
sym_ignore True
sym_tol 5
dft_d d3
xc_smart_grid True
xc_grid 000099000590
$end

--------------------------------------------------------------

             Standard Nuclear Orientation (Angstroms)
    I     Atom           X                Y                Z
 ----------------------------------------------------------------
    1      C       0.0000033736     0.0000007081    -0.3858975709
    2      C      -0.0000016825     0.0000001171    -1.3052068654
    3      H      -0.0000035785    -0.0000010433    -2.2755234933
    4      C      -0.0000033960     0.0000000000     1.2425847736
    5      H       0.9916338986     0.2601992926     1.6323041616
    6      H      -0.2704868842    -0.9888840827     1.6322971256
    7      H      -0.7211607094     0.7286858010     1.6322999265
 ----------------------------------------------------------------

   14    -116.4033823360      6.21E-10 Convergence criterion met
 Total energy in the final basis set = -116.40338234

                    Orbital Energies (a.u.)
 --------------------------------------------------------------

 Alpha MOs
 -- Occupied --
-10.0097  -9.9282  -9.8905  -0.7230  -0.6489  -0.4817  -0.3806  -0.3806
 -0.3783  -0.2951  -0.2951

          Ground-State Mulliken Net Atomic Charges

     Atom                 Charge (a.u.)
  ----------------------------------------
      1 C                     0.275582
      2 C                     0.057348
      3 H                     0.049086
      4 C                    -0.896740
      5 H                     0.171574
      6 H                     0.171574
      7 H                     0.171575
  ----------------------------------------
  Sum of atomic charges =     0.000000

                    Cartesian Multipole Moments
 -----------------------------------------------------------------
    Charge (ESU x 10^10)
                -0.0000
    Dipole Moment (Debye)
         X      -0.0000      Y       0.0000      Z       0.5442
       Tot       0.5442
    Quadrupole Moments (Debye-Ang)
        XX     -18.4498     XY       0.0000     YY     -18.4497
        XZ      -0.0000     YZ       0.0000     ZZ     -14.5266

 Total job time:  4.65s(wall), 91.00s(cpu)
        *  Thank you very much for using Q-Chem.  Have a nice day.  *
