 Q-Chem 5.4, Q-Chem, Inc., Pleasanton, CA (2021)
 Q-Chem 5.4.0 for Intel X86 EM64T Linux

User input:
--------------------------------------------------------------
$molecule
0 1
C	        0.0000017976         0.0000005433        -0.0067722537
C	       -0.0000027911        -0.0000000146        -1.5776372070
H	       -0.0000043577        -0.0000016814        -2.7612148844
C	       -0.0000033960         0.0000000000         1.2425847736
H	        0.9916338986         0.2601992926         1.6323041616
H	       -0.2704868842        -0.9888840827         1.6322971256
H	       -0.7211607094         0.7286858010         1.6322999265
$end
$rem
jobtype sp
method tpss
basis 6-311++g**
thresh 14
scf_convergence 9
scf_algorithm rca_diis
max_scf_cycles 200
gui 2
set_iter 30
RPA False
mem_total 100000
mem_static 2000
n_frozen_virtual 0
mom_start False
skip_scfman False
scf_guess_mix False
symmetry False
sym_ignore True
sym_tol 5
dft_d d3
xc_smart_grid True
xc_grid 000099000590
$end

--------------------------------------------------------------

             Standard Nuclear Orientation (Angstroms)
    I     Atom           X                Y                Z
 ----------------------------------------------------------------
    1      C       0.0000017976     0.0000005433    -0.0067722537
    2      C      -0.0000027911    -0.0000000146    -1.5776372070
    3      H      -0.0000043577    -0.0000016814    -2.7612148844
    4      C      -0.0000033960     0.0000000000     1.2425847736
    5      H       0.9916338986     0.2601992926     1.6323041616
    6      H      -0.2704868842    -0.9888840827     1.6322971256
    7      H      -0.7211607094     0.7286858010     1.6322999265
 ----------------------------------------------------------------

   16    -116.5343333773      2.37E-10 Convergence criterion met
 Total energy in the final basis set = -116.53433338

                    Orbital Energies (a.u.)
 --------------------------------------------------------------

 Alpha MOs
 -- Occupied --
-10.0450 -10.0423 -10.0143  -0.7818  -0.5908  -0.4982  -0.4313  -0.4313
 -0.4116  -0.1957  -0.1957

          Ground-State Mulliken Net Atomic Charges

     Atom                 Charge (a.u.)
  ----------------------------------------
      1 C                     0.537278
      2 C                    -1.046638
      3 H                     0.257166
      4 C                    -0.329822
      5 H                     0.194005
      6 H                     0.194005
      7 H                     0.194006
  ----------------------------------------
  Sum of atomic charges =     0.000000

                    Cartesian Multipole Moments
 -----------------------------------------------------------------
    Charge (ESU x 10^10)
                 0.0000
    Dipole Moment (Debye)
         X      -0.0000      Y      -0.0000      Z       1.5085
       Tot       1.5085
    Quadrupole Moments (Debye-Ang)
        XX     -20.8843     XY       0.0000     YY     -20.8843
        XZ       0.0000     YZ       0.0000     ZZ     -13.0355

 Total job time:  5.03s(wall), 98.93s(cpu)
        *  Thank you very much for using Q-Chem.  Have a nice day.  *
