 Q-Chem 5.4, Q-Chem, Inc., Pleasanton, CA (2021)
 Q-Chem 5.4.0 for Intel X86 EM64T Linux

User input:
--------------------------------------------------------------
$molecule
0 1
C	        0.0000019946         0.0000005639        -0.0541629184
C	       -0.0000027203        -0.0000000057        -1.5435834143
H	       -0.0000042830        -0.0000015873        -2.7005034605
C	       -0.0000033960         0.0000000000         1.2425847736
H	        0.9916338986         0.2601992926         1.6323041616
H	       -0.2704868842        -0.9888840827         1.6322971256
H	       -0.7211607094         0.7286858010         1.6322999265
$end
$rem
jobtype sp
method tpss
basis 6-311++g**
thresh 14
scf_convergence 9
scf_algorithm rca_diis
max_scf_cycles 200
gui 2
set_iter 30
RPA False
mem_total 100000
mem_static 2000
n_frozen_virtual 0
mom_start False
skip_scfman False
scf_guess_mix False
symmetry False
sym_ignore True
sym_tol 5
dft_d d3
xc_smart_grid True
xc_grid 000099000590
$end

--------------------------------------------------------------

             Standard Nuclear Orientation (Angstroms)
    I     Atom           X                Y                Z
 ----------------------------------------------------------------
    1      C       0.0000019946     0.0000005639    -0.0541629184
    2      C      -0.0000027203    -0.0000000057    -1.5435834143
    3      H      -0.0000042830    -0.0000015873    -2.7005034605
    4      C      -0.0000033960     0.0000000000     1.2425847736
    5      H       0.9916338986     0.2601992926     1.6323041616
    6      H      -0.2704868842    -0.9888840827     1.6322971256
    7      H      -0.7211607094     0.7286858010     1.6322999265
 ----------------------------------------------------------------

   16    -116.5948600860      2.82E-10 Convergence criterion met
 Total energy in the final basis set = -116.59486009

                    Orbital Energies (a.u.)
 --------------------------------------------------------------

 Alpha MOs
 -- Occupied --
-10.0346 -10.0339 -10.0138  -0.7658  -0.6047  -0.4946  -0.4218  -0.4218
 -0.4167  -0.2042  -0.2042

          Ground-State Mulliken Net Atomic Charges

     Atom                 Charge (a.u.)
  ----------------------------------------
      1 C                     0.768462
      2 C                    -1.198487
      3 H                     0.232770
      4 C                    -0.375970
      5 H                     0.191075
      6 H                     0.191075
      7 H                     0.191076
  ----------------------------------------
  Sum of atomic charges =     0.000000

                    Cartesian Multipole Moments
 -----------------------------------------------------------------
    Charge (ESU x 10^10)
                 0.0000
    Dipole Moment (Debye)
         X      -0.0000      Y      -0.0000      Z       1.3378
       Tot       1.3378
    Quadrupole Moments (Debye-Ang)
        XX     -20.6800     XY       0.0000     YY     -20.6800
        XZ       0.0000     YZ       0.0000     ZZ     -13.2550

 Total job time:  5.01s(wall), 98.40s(cpu)
        *  Thank you very much for using Q-Chem.  Have a nice day.  *
