 Q-Chem 5.4, Q-Chem, Inc., Pleasanton, CA (2021)
 Q-Chem 5.4.0 for Intel X86 EM64T Linux

User input:
--------------------------------------------------------------
$molecule
0 1
C	        0.0000022901         0.0000005948        -0.1252489153
C	       -0.0000025850         0.0000000109        -1.4925027252
H	       -0.0000041678        -0.0000014565        -2.6094363247
C	       -0.0000033960         0.0000000000         1.2425847736
H	        0.9916338986         0.2601992926         1.6323041616
H	       -0.2704868842        -0.9888840827         1.6322971256
H	       -0.7211607094         0.7286858010         1.6322999265
$end
$rem
jobtype sp
method tpss
basis 6-311++g**
thresh 14
scf_convergence 9
scf_algorithm rca_diis
max_scf_cycles 200
gui 2
set_iter 30
RPA False
mem_total 100000
mem_static 2000
n_frozen_virtual 0
mom_start False
skip_scfman False
scf_guess_mix False
symmetry False
sym_ignore True
sym_tol 5
dft_d d3
xc_smart_grid True
xc_grid 000099000590
$end

--------------------------------------------------------------

             Standard Nuclear Orientation (Angstroms)
    I     Atom           X                Y                Z
 ----------------------------------------------------------------
    1      C       0.0000022901     0.0000005948    -0.1252489153
    2      C      -0.0000025850     0.0000000109    -1.4925027252
    3      H      -0.0000041678    -0.0000014565    -2.6094363247
    4      C      -0.0000033960     0.0000000000     1.2425847736
    5      H       0.9916338986     0.2601992926     1.6323041616
    6      H      -0.2704868842    -0.9888840827     1.6322971256
    7      H      -0.7211607094     0.7286858010     1.6322999265
 ----------------------------------------------------------------

   17    -116.6667837154      3.71E-10 Convergence criterion met
 Total energy in the final basis set = -116.66678372

                    Orbital Energies (a.u.)
 --------------------------------------------------------------

 Alpha MOs
 -- Occupied --
-10.0178 -10.0132 -10.0118  -0.7445  -0.6265  -0.4905  -0.4197  -0.4092
 -0.4092  -0.2184  -0.2184

          Ground-State Mulliken Net Atomic Charges

     Atom                 Charge (a.u.)
  ----------------------------------------
      1 C                     1.191995
      2 C                    -1.514773
      3 H                     0.189365
      4 C                    -0.425959
      5 H                     0.186457
      6 H                     0.186457
      7 H                     0.186458
  ----------------------------------------
  Sum of atomic charges =     0.000000

                    Cartesian Multipole Moments
 -----------------------------------------------------------------
    Charge (ESU x 10^10)
                 0.0000
    Dipole Moment (Debye)
         X      -0.0000      Y      -0.0000      Z       1.1031
       Tot       1.1031
    Quadrupole Moments (Debye-Ang)
        XX     -20.3234     XY       0.0000     YY     -20.3234
        XZ       0.0000     YZ       0.0000     ZZ     -13.5889

 Total job time:  4.84s(wall), 95.25s(cpu)
        *  Thank you very much for using Q-Chem.  Have a nice day.  *
