 Q-Chem 5.4, Q-Chem, Inc., Pleasanton, CA (2021)
 Q-Chem 5.4.0 for Intel X86 EM64T Linux

User input:
--------------------------------------------------------------
$molecule
0 1
C	        0.0000021916         0.0000005845        -0.1015535830
C	       -0.0000026342         0.0000000049        -1.5095296216
H	       -0.0000042070        -0.0000014989        -2.6397920366
C	       -0.0000033960         0.0000000000         1.2425847736
H	        0.9916338986         0.2601992926         1.6323041616
H	       -0.2704868842        -0.9888840827         1.6322971256
H	       -0.7211607094         0.7286858010         1.6322999265
$end
$rem
jobtype sp
method tpss
basis 6-311++g**
thresh 14
scf_convergence 9
scf_algorithm rca_diis
max_scf_cycles 200
gui 2
set_iter 30
RPA False
mem_total 100000
mem_static 2000
n_frozen_virtual 0
mom_start False
skip_scfman False
scf_guess_mix False
symmetry False
sym_ignore True
sym_tol 5
dft_d d3
xc_smart_grid True
xc_grid 000099000590
$end

--------------------------------------------------------------

             Standard Nuclear Orientation (Angstroms)
    I     Atom           X                Y                Z
 ----------------------------------------------------------------
    1      C       0.0000021916     0.0000005845    -0.1015535830
    2      C      -0.0000026342     0.0000000049    -1.5095296216
    3      H      -0.0000042070    -0.0000014989    -2.6397920366
    4      C      -0.0000033960     0.0000000000     1.2425847736
    5      H       0.9916338986     0.2601992926     1.6323041616
    6      H      -0.2704868842    -0.9888840827     1.6322971256
    7      H      -0.7211607094     0.7286858010     1.6322999265
 ----------------------------------------------------------------

   15    -116.6457041566      4.34E-10 Convergence criterion met
 Total energy in the final basis set = -116.64570416

                    Orbital Energies (a.u.)
 --------------------------------------------------------------

 Alpha MOs
 -- Occupied --
-10.0241 -10.0199 -10.0134  -0.7511  -0.6193  -0.4917  -0.4194  -0.4132
 -0.4132  -0.2135  -0.2135

          Ground-State Mulliken Net Atomic Charges

     Atom                 Charge (a.u.)
  ----------------------------------------
      1 C                     1.038608
      2 C                    -1.395248
      3 H                     0.204830
      4 C                    -0.412183
      5 H                     0.187997
      6 H                     0.187997
      7 H                     0.187998
  ----------------------------------------
  Sum of atomic charges =     0.000000

                    Cartesian Multipole Moments
 -----------------------------------------------------------------
    Charge (ESU x 10^10)
                 0.0000
    Dipole Moment (Debye)
         X      -0.0000      Y      -0.0000      Z       1.1777
       Tot       1.1777
    Quadrupole Moments (Debye-Ang)
        XX     -20.4493     XY       0.0000     YY     -20.4493
        XZ       0.0000     YZ       0.0000     ZZ     -13.4784

 Total job time:  4.54s(wall), 89.36s(cpu)
        *  Thank you very much for using Q-Chem.  Have a nice day.  *
