 Q-Chem 5.4, Q-Chem, Inc., Pleasanton, CA (2021)
 Q-Chem 5.4.0 for Intel X86 EM64T Linux

User input:
--------------------------------------------------------------
$molecule
0 1
C	        0.0000029796         0.0000006669        -0.2911162416
C	       -0.0000020999         0.0000000685        -1.3733144508
H	       -0.0000038399        -0.0000011858        -2.3969463411
C	       -0.0000033960         0.0000000000         1.2425847736
H	        0.9916338986         0.2601992926         1.6323041616
H	       -0.2704868842        -0.9888840827         1.6322971256
H	       -0.7211607094         0.7286858010         1.6322999265
$end
$rem
jobtype sp
method tpss
basis 6-311++g**
thresh 14
scf_convergence 9
scf_algorithm rca_diis
max_scf_cycles 200
gui 2
set_iter 30
RPA False
mem_total 100000
mem_static 2000
n_frozen_virtual 0
mom_start False
skip_scfman False
scf_guess_mix False
symmetry False
sym_ignore True
sym_tol 5
dft_d d3
xc_smart_grid True
xc_grid 000099000590
$end

--------------------------------------------------------------

             Standard Nuclear Orientation (Angstroms)
    I     Atom           X                Y                Z
 ----------------------------------------------------------------
    1      C       0.0000029796     0.0000006669    -0.2911162416
    2      C      -0.0000020999     0.0000000685    -1.3733144508
    3      H      -0.0000038399    -0.0000011858    -2.3969463411
    4      C      -0.0000033960     0.0000000000     1.2425847736
    5      H       0.9916338986     0.2601992926     1.6323041616
    6      H      -0.2704868842    -0.9888840827     1.6322971256
    7      H      -0.7211607094     0.7286858010     1.6322999265
 ----------------------------------------------------------------

   14    -116.6660591291      7.70E-10 Convergence criterion met
 Total energy in the final basis set = -116.66605913

                    Orbital Energies (a.u.)
 --------------------------------------------------------------

 Alpha MOs
 -- Occupied --
-10.0116  -9.9567  -9.9366  -0.7244  -0.6572  -0.4866  -0.4017  -0.3879
 -0.3879  -0.2603  -0.2603

          Ground-State Mulliken Net Atomic Charges

     Atom                 Charge (a.u.)
  ----------------------------------------
      1 C                     2.826012
      2 C                    -2.960933
      3 H                     0.057267
      4 C                    -0.453460
      5 H                     0.177037
      6 H                     0.177037
      7 H                     0.177038
  ----------------------------------------
  Sum of atomic charges =     0.000000

                    Cartesian Multipole Moments
 -----------------------------------------------------------------
    Charge (ESU x 10^10)
                 0.0000
    Dipole Moment (Debye)
         X      -0.0000      Y       0.0000      Z       0.7036
       Tot       0.7036
    Quadrupole Moments (Debye-Ang)
        XX     -19.2332     XY       0.0000     YY     -19.2332
        XZ       0.0000     YZ       0.0000     ZZ     -14.2567

 Total job time:  4.30s(wall), 84.60s(cpu)
        *  Thank you very much for using Q-Chem.  Have a nice day.  *
