 Q-Chem 5.4, Q-Chem, Inc., Pleasanton, CA (2021)
 Q-Chem 5.4.0 for Intel X86 EM64T Linux

User input:
--------------------------------------------------------------
$molecule
0 1
C	        0.0000023886         0.0000006051        -0.1489442477
C	       -0.0000025313         0.0000000174        -1.4754758289
H	       -0.0000041273        -0.0000014153        -2.5790806128
C	       -0.0000033960         0.0000000000         1.2425847736
H	        0.9916338986         0.2601992926         1.6323041616
H	       -0.2704868842        -0.9888840827         1.6322971256
H	       -0.7211607094         0.7286858010         1.6322999265
$end
$rem
jobtype sp
method tpss
basis 6-311++g**
thresh 14
scf_convergence 9
scf_algorithm rca_diis
max_scf_cycles 200
gui 2
set_iter 30
RPA False
mem_total 100000
mem_static 2000
n_frozen_virtual 0
mom_start False
skip_scfman False
scf_guess_mix False
symmetry False
sym_ignore True
sym_tol 5
dft_d d3
xc_smart_grid True
xc_grid 000099000590
$end

--------------------------------------------------------------

             Standard Nuclear Orientation (Angstroms)
    I     Atom           X                Y                Z
 ----------------------------------------------------------------
    1      C       0.0000023886     0.0000006051    -0.1489442477
    2      C      -0.0000025313     0.0000000174    -1.4754758289
    3      H      -0.0000041273    -0.0000014153    -2.5790806128
    4      C      -0.0000033960     0.0000000000     1.2425847736
    5      H       0.9916338986     0.2601992926     1.6323041616
    6      H      -0.2704868842    -0.9888840827     1.6322971256
    7      H      -0.7211607094     0.7286858010     1.6322999265
 ----------------------------------------------------------------

   16    -116.6843571623      9.24E-10 Convergence criterion met
 Total energy in the final basis set = -116.68435716

                    Orbital Energies (a.u.)
 --------------------------------------------------------------

 Alpha MOs
 -- Occupied --
-10.0130 -10.0107 -10.0029  -0.7385  -0.6336  -0.4896  -0.4193  -0.4055
 -0.4055  -0.2235  -0.2235

          Ground-State Mulliken Net Atomic Charges

     Atom                 Charge (a.u.)
  ----------------------------------------
      1 C                     1.360199
      2 C                    -1.651217
      3 H                     0.172866
      4 C                    -0.436673
      5 H                     0.184941
      6 H                     0.184941
      7 H                     0.184942
  ----------------------------------------
  Sum of atomic charges =     0.000000

                    Cartesian Multipole Moments
 -----------------------------------------------------------------
    Charge (ESU x 10^10)
                 0.0000
    Dipole Moment (Debye)
         X      -0.0000      Y      -0.0000      Z       1.0327
       Tot       1.0327
    Quadrupole Moments (Debye-Ang)
        XX     -20.1902     XY       0.0000     YY     -20.1902
        XZ       0.0000     YZ       0.0000     ZZ     -13.6971

 Total job time:  4.65s(wall), 91.55s(cpu)
        *  Thank you very much for using Q-Chem.  Have a nice day.  *
