 Q-Chem 5.4, Q-Chem, Inc., Pleasanton, CA (2021)
 Q-Chem 5.4.0 for Intel X86 EM64T Linux

User input:
--------------------------------------------------------------
$molecule
0 1
C	        0.0000020931         0.0000005742        -0.0778582507
C	       -0.0000026792        -0.0000000006        -1.5265565179
H	       -0.0000042453        -0.0000015424        -2.6701477486
C	       -0.0000033960         0.0000000000         1.2425847736
H	        0.9916338986         0.2601992926         1.6323041616
H	       -0.2704868842        -0.9888840827         1.6322971256
H	       -0.7211607094         0.7286858010         1.6322999265
$end
$rem
jobtype sp
method tpss
basis 6-311++g**
thresh 14
scf_convergence 9
scf_algorithm rca_diis
max_scf_cycles 200
gui 2
set_iter 30
RPA False
mem_total 100000
mem_static 2000
n_frozen_virtual 0
mom_start False
skip_scfman False
scf_guess_mix False
symmetry False
sym_ignore True
sym_tol 5
dft_d d3
xc_smart_grid True
xc_grid 000099000590
$end

--------------------------------------------------------------

             Standard Nuclear Orientation (Angstroms)
    I     Atom           X                Y                Z
 ----------------------------------------------------------------
    1      C       0.0000020931     0.0000005742    -0.0778582507
    2      C      -0.0000026792    -0.0000000006    -1.5265565179
    3      H      -0.0000042453    -0.0000015424    -2.6701477486
    4      C      -0.0000033960     0.0000000000     1.2425847736
    5      H       0.9916338986     0.2601992926     1.6323041616
    6      H      -0.2704868842    -0.9888840827     1.6322971256
    7      H      -0.7211607094     0.7286858010     1.6322999265
 ----------------------------------------------------------------

   16    -116.6216079368      2.26E-10 Convergence criterion met
 Total energy in the final basis set = -116.62160794

                    Orbital Energies (a.u.)
 --------------------------------------------------------------

 Alpha MOs
 -- Occupied --
-10.0298 -10.0272 -10.0136  -0.7583  -0.6120  -0.4930  -0.4184  -0.4173
 -0.4173  -0.2088  -0.2088

          Ground-State Mulliken Net Atomic Charges

     Atom                 Charge (a.u.)
  ----------------------------------------
      1 C                     0.897998
      2 C                    -1.290466
      3 H                     0.219281
      4 C                    -0.395443
      5 H                     0.189543
      6 H                     0.189543
      7 H                     0.189544
  ----------------------------------------
  Sum of atomic charges =     0.000000

                    Cartesian Multipole Moments
 -----------------------------------------------------------------
    Charge (ESU x 10^10)
                 0.0000
    Dipole Moment (Debye)
         X      -0.0000      Y      -0.0000      Z       1.2561
       Tot       1.2561
    Quadrupole Moments (Debye-Ang)
        XX     -20.5680     XY       0.0000     YY     -20.5680
        XZ       0.0000     YZ       0.0000     ZZ     -13.3668

 Total job time:  4.87s(wall), 95.89s(cpu)
        *  Thank you very much for using Q-Chem.  Have a nice day.  *
