 Q-Chem 5.4, Q-Chem, Inc., Pleasanton, CA (2021)
 Q-Chem 5.4.0 for Intel X86 EM64T Linux

User input:
--------------------------------------------------------------
$molecule
0 1
C	        0.0000031766         0.0000006875        -0.3385069063
C	       -0.0000019065         0.0000000911        -1.3392606581
H	       -0.0000037184        -0.0000011140        -2.3362349172
C	       -0.0000033960         0.0000000000         1.2425847736
H	        0.9916338986         0.2601992926         1.6323041616
H	       -0.2704868842        -0.9888840827         1.6322971256
H	       -0.7211607094         0.7286858010         1.6322999265
$end
$rem
jobtype sp
method tpss
basis 6-311++g**
thresh 14
scf_convergence 9
scf_algorithm rca_diis
max_scf_cycles 200
gui 2
set_iter 30
RPA False
mem_total 100000
mem_static 2000
n_frozen_virtual 0
mom_start False
skip_scfman False
scf_guess_mix False
symmetry False
sym_ignore True
sym_tol 5
dft_d d3
xc_smart_grid True
xc_grid 000099000590
$end

--------------------------------------------------------------

             Standard Nuclear Orientation (Angstroms)
    I     Atom           X                Y                Z
 ----------------------------------------------------------------
    1      C       0.0000031766     0.0000006875    -0.3385069063
    2      C      -0.0000019065     0.0000000911    -1.3392606581
    3      H      -0.0000037184    -0.0000011140    -2.3362349172
    4      C      -0.0000033960     0.0000000000     1.2425847736
    5      H       0.9916338986     0.2601992926     1.6323041616
    6      H      -0.2704868842    -0.9888840827     1.6322971256
    7      H      -0.7211607094     0.7286858010     1.6322999265
 ----------------------------------------------------------------

   14    -116.5747516328      7.01E-10 Convergence criterion met
 Total energy in the final basis set = -116.57475163

                    Orbital Energies (a.u.)
 --------------------------------------------------------------

 Alpha MOs
 -- Occupied --
-10.0109  -9.9388  -9.9125  -0.7259  -0.6546  -0.4848  -0.3911  -0.3837
 -0.3837  -0.2763  -0.2763

          Ground-State Mulliken Net Atomic Charges

     Atom                 Charge (a.u.)
  ----------------------------------------
      1 C                     0.366165
      2 C                    -0.058600
      3 H                     0.088560
      4 C                    -0.916113
      5 H                     0.173329
      6 H                     0.173329
      7 H                     0.173330
  ----------------------------------------
  Sum of atomic charges =     0.000000

                    Cartesian Multipole Moments
 -----------------------------------------------------------------
    Charge (ESU x 10^10)
                 0.0000
    Dipole Moment (Debye)
         X      -0.0000      Y       0.0000      Z       0.6223
       Tot       0.6223
    Quadrupole Moments (Debye-Ang)
        XX     -18.8558     XY       0.0000     YY     -18.8558
        XZ       0.0000     YZ       0.0000     ZZ     -14.3999

 Total job time:  4.25s(wall), 83.51s(cpu)
        *  Thank you very much for using Q-Chem.  Have a nice day.  *
