 Q-Chem 5.4, Q-Chem, Inc., Pleasanton, CA (2021)
 Q-Chem 5.4.0 for Intel X86 EM64T Linux

User input:
--------------------------------------------------------------
$molecule
0 1
C	        0.0000015021         0.0000005123         0.0643137433
C	       -0.0000028721        -0.0000000251        -1.6287178960
H	       -0.0000044726        -0.0000018353        -2.8522820203
C	       -0.0000033960         0.0000000000         1.2425847736
H	        0.9916338986         0.2601992926         1.6323041616
H	       -0.2704868842        -0.9888840827         1.6322971256
H	       -0.7211607094         0.7286858010         1.6322999265
$end
$rem
jobtype sp
method tpss
basis 6-311++g**
thresh 14
scf_convergence 9
scf_algorithm rca_diis
max_scf_cycles 200
gui 2
set_iter 30
RPA False
mem_total 100000
mem_static 2000
n_frozen_virtual 0
mom_start False
skip_scfman False
scf_guess_mix False
symmetry False
sym_ignore True
sym_tol 5
dft_d d3
xc_smart_grid True
xc_grid 000099000590
$end

--------------------------------------------------------------

             Standard Nuclear Orientation (Angstroms)
    I     Atom           X                Y                Z
 ----------------------------------------------------------------
    1      C       0.0000015021     0.0000005123     0.0643137433
    2      C      -0.0000028721    -0.0000000251    -1.6287178960
    3      H      -0.0000044726    -0.0000018353    -2.8522820203
    4      C      -0.0000033960     0.0000000000     1.2425847736
    5      H       0.9916338986     0.2601992926     1.6323041616
    6      H      -0.2704868842    -0.9888840827     1.6322971256
    7      H      -0.7211607094     0.7286858010     1.6322999265
 ----------------------------------------------------------------

   17    -116.4271324676      1.13E-10 Convergence criterion met
 Total energy in the final basis set = -116.42713247

                    Orbital Energies (a.u.)
 --------------------------------------------------------------

 Alpha MOs
 -- Occupied --
-10.0570 -10.0489 -10.0148  -0.8069  -0.5719  -0.5042  -0.4475  -0.4475
 -0.4010  -0.1838  -0.1838

          Ground-State Mulliken Net Atomic Charges

     Atom                 Charge (a.u.)
  ----------------------------------------
      1 C                     0.244282
      2 C                    -0.882269
      3 H                     0.288494
      4 C                    -0.243640
      5 H                     0.197711
      6 H                     0.197711
      7 H                     0.197712
  ----------------------------------------
  Sum of atomic charges =     0.000000

                    Cartesian Multipole Moments
 -----------------------------------------------------------------
    Charge (ESU x 10^10)
                 0.0000
    Dipole Moment (Debye)
         X      -0.0000      Y      -0.0000      Z       1.7717
       Tot       1.7717
    Quadrupole Moments (Debye-Ang)
        XX     -21.1472     XY       0.0000     YY     -21.1472
        XZ       0.0000     YZ       0.0000     ZZ     -12.7317

 Total job time:  5.03s(wall), 98.61s(cpu)
        *  Thank you very much for using Q-Chem.  Have a nice day.  *
