 Q-Chem 5.4, Q-Chem, Inc., Pleasanton, CA (2021)
 Q-Chem 5.4.0 for Intel X86 EM64T Linux

User input:
--------------------------------------------------------------
$molecule
0 1
C	        0.0000016991         0.0000005330         0.0169230786
C	       -0.0000028213        -0.0000000184        -1.5946641033
H	       -0.0000043953        -0.0000017309        -2.7915705964
C	       -0.0000033960         0.0000000000         1.2425847736
H	        0.9916338986         0.2601992926         1.6323041616
H	       -0.2704868842        -0.9888840827         1.6322971256
H	       -0.7211607094         0.7286858010         1.6322999265
$end
$rem
jobtype sp
method tpss
basis 6-311++g**
thresh 14
scf_convergence 9
scf_algorithm rca_diis
max_scf_cycles 200
gui 2
set_iter 30
RPA False
mem_total 100000
mem_static 2000
n_frozen_virtual 0
mom_start False
skip_scfman False
scf_guess_mix False
symmetry False
sym_ignore True
sym_tol 5
dft_d d3
xc_smart_grid True
xc_grid 000099000590
$end

--------------------------------------------------------------

             Standard Nuclear Orientation (Angstroms)
    I     Atom           X                Y                Z
 ----------------------------------------------------------------
    1      C       0.0000016991     0.0000005330     0.0169230786
    2      C      -0.0000028213    -0.0000000184    -1.5946641033
    3      H      -0.0000043953    -0.0000017309    -2.7915705964
    4      C      -0.0000033960     0.0000000000     1.2425847736
    5      H       0.9916338986     0.2601992926     1.6323041616
    6      H      -0.2704868842    -0.9888840827     1.6322971256
    7      H      -0.7211607094     0.7286858010     1.6322999265
 ----------------------------------------------------------------

   17    -116.5007902139      4.17E-10 Convergence criterion met
 Total energy in the final basis set = -116.50079021

                    Orbital Energies (a.u.)
 --------------------------------------------------------------

 Alpha MOs
 -- Occupied --
-10.0496 -10.0451 -10.0145  -0.7900  -0.5842  -0.5002  -0.4365  -0.4365
 -0.4084  -0.1916  -0.1916

          Ground-State Mulliken Net Atomic Charges

     Atom                 Charge (a.u.)
  ----------------------------------------
      1 C                     0.433443
      2 C                    -0.984280
      3 H                     0.268236
      4 C                    -0.303469
      5 H                     0.195356
      6 H                     0.195356
      7 H                     0.195357
  ----------------------------------------
  Sum of atomic charges =     0.000000

                    Cartesian Multipole Moments
 -----------------------------------------------------------------
    Charge (ESU x 10^10)
                 0.0000
    Dipole Moment (Debye)
         X      -0.0000      Y      -0.0000      Z       1.5961
       Tot       1.5961
    Quadrupole Moments (Debye-Ang)
        XX     -20.9774     XY       0.0000     YY     -20.9774
        XZ       0.0000     YZ       0.0000     ZZ     -12.9298

 Total job time:  4.87s(wall), 95.50s(cpu)
        *  Thank you very much for using Q-Chem.  Have a nice day.  *
