 Q-Chem 5.4, Q-Chem, Inc., Pleasanton, CA (2021)
 Q-Chem 5.4.0 for Intel X86 EM64T Linux

User input:
--------------------------------------------------------------
$molecule
0 1
C	        0.0000027826         0.0000006463        -0.2437255770
C	       -0.0000022666         0.0000000489        -1.4073682435
H	       -0.0000039465        -0.0000012595        -2.4576577650
C	       -0.0000033960         0.0000000000         1.2425847736
H	        0.9916338986         0.2601992926         1.6323041616
H	       -0.2704868842        -0.9888840827         1.6322971256
H	       -0.7211607094         0.7286858010         1.6322999265
$end
$rem
jobtype sp
method tpss
basis 6-311++g**
thresh 14
scf_convergence 9
scf_algorithm rca_diis
max_scf_cycles 200
gui 2
set_iter 30
RPA False
mem_total 100000
mem_static 2000
n_frozen_virtual 0
mom_start False
skip_scfman False
scf_guess_mix False
symmetry False
sym_ignore True
sym_tol 5
dft_d d3
xc_smart_grid True
xc_grid 000099000590
$end

--------------------------------------------------------------

             Standard Nuclear Orientation (Angstroms)
    I     Atom           X                Y                Z
 ----------------------------------------------------------------
    1      C       0.0000027826     0.0000006463    -0.2437255770
    2      C      -0.0000022666     0.0000000489    -1.4073682435
    3      H      -0.0000039465    -0.0000012595    -2.4576577650
    4      C      -0.0000033960     0.0000000000     1.2425847736
    5      H       0.9916338986     0.2601992926     1.6323041616
    6      H      -0.2704868842    -0.9888840827     1.6322971256
    7      H      -0.7211607094     0.7286858010     1.6322999265
 ----------------------------------------------------------------

   14    -116.7040046824      8.71E-10 Convergence criterion met
 Total energy in the final basis set = -116.70400468

                    Orbital Energies (a.u.)
 --------------------------------------------------------------

 Alpha MOs
 -- Occupied --
-10.0121  -9.9761  -9.9607  -0.7243  -0.6547  -0.4876  -0.4101  -0.3929
 -0.3929  -0.2466  -0.2466

          Ground-State Mulliken Net Atomic Charges

     Atom                 Charge (a.u.)
  ----------------------------------------
      1 C                     2.231824
      2 C                    -2.414692
      3 H                     0.097901
      4 C                    -0.453212
      5 H                     0.179393
      6 H                     0.179393
      7 H                     0.179394
  ----------------------------------------
  Sum of atomic charges =     0.000000

                    Cartesian Multipole Moments
 -----------------------------------------------------------------
    Charge (ESU x 10^10)
                 0.0000
    Dipole Moment (Debye)
         X      -0.0000      Y      -0.0000      Z       0.7963
       Tot       0.7963
    Quadrupole Moments (Debye-Ang)
        XX     -19.5824     XY       0.0000     YY     -19.5824
        XZ       0.0000     YZ       0.0000     ZZ     -14.0911

 Total job time:  4.30s(wall), 84.63s(cpu)
        *  Thank you very much for using Q-Chem.  Have a nice day.  *
