 Q-Chem 5.4, Q-Chem, Inc., Pleasanton, CA (2021)
 Q-Chem 5.4.0 for Intel X86 EM64T Linux

User input:
--------------------------------------------------------------
$molecule
0 1
C	        0.0000028811         0.0000006566        -0.2674209093
C	       -0.0000021864         0.0000000584        -1.3903413472
H	       -0.0000038948        -0.0000012223        -2.4273020530
C	       -0.0000033960         0.0000000000         1.2425847736
H	        0.9916338986         0.2601992926         1.6323041616
H	       -0.2704868842        -0.9888840827         1.6322971256
H	       -0.7211607094         0.7286858010         1.6322999265
$end
$rem
jobtype sp
method tpss
basis 6-311++g**
thresh 14
scf_convergence 9
scf_algorithm rca_diis
max_scf_cycles 200
gui 2
set_iter 30
RPA False
mem_total 100000
mem_static 2000
n_frozen_virtual 0
mom_start False
skip_scfman False
scf_guess_mix False
symmetry False
sym_ignore True
sym_tol 5
dft_d d3
xc_smart_grid True
xc_grid 000099000590
$end

--------------------------------------------------------------

             Standard Nuclear Orientation (Angstroms)
    I     Atom           X                Y                Z
 ----------------------------------------------------------------
    1      C       0.0000028811     0.0000006566    -0.2674209093
    2      C      -0.0000021864     0.0000000584    -1.3903413472
    3      H      -0.0000038948    -0.0000012223    -2.4273020530
    4      C      -0.0000033960     0.0000000000     1.2425847736
    5      H       0.9916338986     0.2601992926     1.6323041616
    6      H      -0.2704868842    -0.9888840827     1.6322971256
    7      H      -0.7211607094     0.7286858010     1.6322999265
 ----------------------------------------------------------------

   14    -116.6904228261      7.92E-10 Convergence criterion met
 Total energy in the final basis set = -116.69042283

                    Orbital Energies (a.u.)
 --------------------------------------------------------------

 Alpha MOs
 -- Occupied --
-10.0119  -9.9664  -9.9488  -0.7238  -0.6567  -0.4871  -0.4062  -0.3903
 -0.3903  -0.2532  -0.2532

          Ground-State Mulliken Net Atomic Charges

     Atom                 Charge (a.u.)
  ----------------------------------------
      1 C                     2.513338
      2 C                    -2.672146
      3 H                     0.077691
      4 C                    -0.453417
      5 H                     0.178177
      6 H                     0.178177
      7 H                     0.178178
  ----------------------------------------
  Sum of atomic charges =     0.000000

                    Cartesian Multipole Moments
 -----------------------------------------------------------------
    Charge (ESU x 10^10)
                 0.0000
    Dipole Moment (Debye)
         X      -0.0000      Y      -0.0000      Z       0.7481
       Tot       0.7481
    Quadrupole Moments (Debye-Ang)
        XX     -19.4115     XY       0.0000     YY     -19.4115
        XZ       0.0000     YZ       0.0000     ZZ     -14.1768

 Total job time:  4.28s(wall), 83.85s(cpu)
        *  Thank you very much for using Q-Chem.  Have a nice day.  *
