 Q-Chem 5.4, Q-Chem, Inc., Pleasanton, CA (2021)
 Q-Chem 5.4.0 for Intel X86 EM64T Linux

User input:
--------------------------------------------------------------
$molecule
0 1
C	        0.0000016006         0.0000005227         0.0406184110
C	       -0.0000028483        -0.0000000219        -1.6116909997
H	       -0.0000044335        -0.0000017821        -2.8219263083
C	       -0.0000033960         0.0000000000         1.2425847736
H	        0.9916338986         0.2601992926         1.6323041616
H	       -0.2704868842        -0.9888840827         1.6322971256
H	       -0.7211607094         0.7286858010         1.6322999265
$end
$rem
jobtype sp
method tpss
basis 6-311++g**
thresh 14
scf_convergence 9
scf_algorithm rca_diis
max_scf_cycles 200
gui 2
set_iter 30
RPA False
mem_total 100000
mem_static 2000
n_frozen_virtual 0
mom_start False
skip_scfman False
scf_guess_mix False
symmetry False
sym_ignore True
sym_tol 5
dft_d d3
xc_smart_grid True
xc_grid 000099000590
$end

--------------------------------------------------------------

             Standard Nuclear Orientation (Angstroms)
    I     Atom           X                Y                Z
 ----------------------------------------------------------------
    1      C       0.0000016006     0.0000005227     0.0406184110
    2      C      -0.0000028483    -0.0000000219    -1.6116909997
    3      H      -0.0000044335    -0.0000017821    -2.8219263083
    4      C      -0.0000033960     0.0000000000     1.2425847736
    5      H       0.9916338986     0.2601992926     1.6323041616
    6      H      -0.2704868842    -0.9888840827     1.6322971256
    7      H      -0.7211607094     0.7286858010     1.6322999265
 ----------------------------------------------------------------

   18    -116.4650814640      3.35E-10 Convergence criterion met
 Total energy in the final basis set = -116.46508146

                    Orbital Energies (a.u.)
 --------------------------------------------------------------

 Alpha MOs
 -- Occupied --
-10.0536 -10.0473 -10.0146  -0.7984  -0.5779  -0.5022  -0.4419  -0.4419
 -0.4048  -0.1876  -0.1876

          Ground-State Mulliken Net Atomic Charges

     Atom                 Charge (a.u.)
  ----------------------------------------
      1 C                     0.336123
      2 C                    -0.929723
      3 H                     0.278657
      4 C                    -0.274857
      5 H                     0.196600
      6 H                     0.196600
      7 H                     0.196600
  ----------------------------------------
  Sum of atomic charges =     0.000000

                    Cartesian Multipole Moments
 -----------------------------------------------------------------
    Charge (ESU x 10^10)
                 0.0000
    Dipole Moment (Debye)
         X      -0.0000      Y      -0.0000      Z       1.6841
       Tot       1.6841
    Quadrupole Moments (Debye-Ang)
        XX     -21.0649     XY       0.0000     YY     -21.0649
        XZ       0.0000     YZ       0.0000     ZZ     -12.8283

 Total job time:  5.67s(wall), 111.47s(cpu)
        *  Thank you very much for using Q-Chem.  Have a nice day.  *
