 Q-Chem 5.4, Q-Chem, Inc., Pleasanton, CA (2021)
 Q-Chem 5.4.0 for Intel X86 EM64T Linux

User input:
--------------------------------------------------------------
$molecule
0 1
C	        0.0000024871         0.0000006154        -0.1726395800
C	       -0.0000024729         0.0000000244        -1.4584489325
H	       -0.0000040853        -0.0000013751        -2.5487249008
C	       -0.0000033960         0.0000000000         1.2425847736
H	        0.9916338986         0.2601992926         1.6323041616
H	       -0.2704868842        -0.9888840827         1.6322971256
H	       -0.7211607094         0.7286858010         1.6322999265
$end
$rem
jobtype sp
method tpss
basis 6-311++g**
thresh 14
scf_convergence 9
scf_algorithm rca_diis
max_scf_cycles 200
gui 2
set_iter 30
RPA False
mem_total 100000
mem_static 2000
n_frozen_virtual 0
mom_start False
skip_scfman False
scf_guess_mix False
symmetry False
sym_ignore True
sym_tol 5
dft_d d3
xc_smart_grid True
xc_grid 000099000590
$end

--------------------------------------------------------------

             Standard Nuclear Orientation (Angstroms)
    I     Atom           X                Y                Z
 ----------------------------------------------------------------
    1      C       0.0000024871     0.0000006154    -0.1726395800
    2      C      -0.0000024729     0.0000000244    -1.4584489325
    3      H      -0.0000040853    -0.0000013751    -2.5487249008
    4      C      -0.0000033960     0.0000000000     1.2425847736
    5      H       0.9916338986     0.2601992926     1.6323041616
    6      H      -0.2704868842    -0.9888840827     1.6322971256
    7      H      -0.7211607094     0.7286858010     1.6322999265
 ----------------------------------------------------------------

   16    -116.6977866207      7.17E-10 Convergence criterion met
 Total energy in the final basis set = -116.69778662

                    Orbital Energies (a.u.)
 --------------------------------------------------------------

 Alpha MOs
 -- Occupied --
-10.0128 -10.0030  -9.9933  -0.7333  -0.6402  -0.4890  -0.4181  -0.4020
 -0.4020  -0.2288  -0.2288

          Ground-State Mulliken Net Atomic Charges

     Atom                 Charge (a.u.)
  ----------------------------------------
      1 C                     1.545582
      2 C                    -1.806950
      3 H                     0.155359
      4 C                    -0.444390
      5 H                     0.183466
      6 H                     0.183466
      7 H                     0.183467
  ----------------------------------------
  Sum of atomic charges =     0.000000

                    Cartesian Multipole Moments
 -----------------------------------------------------------------
    Charge (ESU x 10^10)
                 0.0000
    Dipole Moment (Debye)
         X      -0.0000      Y      -0.0000      Z       0.9667
       Tot       0.9667
    Quadrupole Moments (Debye-Ang)
        XX     -20.0496     XY       0.0000     YY     -20.0496
        XZ       0.0000     YZ       0.0000     ZZ     -13.8022

 Total job time:  4.67s(wall), 92.24s(cpu)
        *  Thank you very much for using Q-Chem.  Have a nice day.  *
