 Q-Chem 5.4, Q-Chem, Inc., Pleasanton, CA (2021)
 Q-Chem 5.4.0 for Intel X86 EM64T Linux

User input:
--------------------------------------------------------------
$molecule
0 1
C	        0.0000032751         0.0000006978        -0.3622022386
C	       -0.0000017985         0.0000001036        -1.3222337618
H	       -0.0000036510        -0.0000010785        -2.3058792052
C	       -0.0000033960         0.0000000000         1.2425847736
H	        0.9916338986         0.2601992926         1.6323041616
H	       -0.2704868842        -0.9888840827         1.6322971256
H	       -0.7211607094         0.7286858010         1.6322999265
$end
$rem
jobtype sp
method tpss
basis 6-311++g**
thresh 14
scf_convergence 9
scf_algorithm rca_diis
max_scf_cycles 200
gui 2
set_iter 30
RPA False
mem_total 100000
mem_static 2000
n_frozen_virtual 0
mom_start False
skip_scfman False
scf_guess_mix False
symmetry False
sym_ignore True
sym_tol 5
dft_d d3
xc_smart_grid True
xc_grid 000099000590
$end

--------------------------------------------------------------

             Standard Nuclear Orientation (Angstroms)
    I     Atom           X                Y                Z
 ----------------------------------------------------------------
    1      C       0.0000032751     0.0000006978    -0.3622022386
    2      C      -0.0000017985     0.0000001036    -1.3222337618
    3      H      -0.0000036510    -0.0000010785    -2.3058792052
    4      C      -0.0000033960     0.0000000000     1.2425847736
    5      H       0.9916338986     0.2601992926     1.6323041616
    6      H      -0.2704868842    -0.9888840827     1.6322971256
    7      H      -0.7211607094     0.7286858010     1.6322999265
 ----------------------------------------------------------------

   14    -116.5012212615      6.59E-10 Convergence criterion met
 Total energy in the final basis set = -116.50122126

                    Orbital Energies (a.u.)
 --------------------------------------------------------------

 Alpha MOs
 -- Occupied --
-10.0104  -9.9321  -9.9010  -0.7254  -0.6520  -0.4835  -0.3850  -0.3820
 -0.3820  -0.2853  -0.2853

          Ground-State Mulliken Net Atomic Charges

     Atom                 Charge (a.u.)
  ----------------------------------------
      1 C                     0.318730
      2 C                     0.001874
      3 H                     0.069532
      4 C                    -0.907403
      5 H                     0.172422
      6 H                     0.172422
      7 H                     0.172423
  ----------------------------------------
  Sum of atomic charges =     0.000000

                    Cartesian Multipole Moments
 -----------------------------------------------------------------
    Charge (ESU x 10^10)
                -0.0000
    Dipole Moment (Debye)
         X      -0.0000      Y       0.0000      Z       0.5836
       Tot       0.5836
    Quadrupole Moments (Debye-Ang)
        XX     -18.6561     XY       0.0000     YY     -18.6561
        XZ       0.0000     YZ       0.0000     ZZ     -14.4647

 Total job time:  4.47s(wall), 87.95s(cpu)
        *  Thank you very much for using Q-Chem.  Have a nice day.  *
