 Q-Chem 5.4, Q-Chem, Inc., Pleasanton, CA (2021)
 Q-Chem 5.4.0 for Intel X86 EM64T Linux

User input:
--------------------------------------------------------------
$molecule
0 1
C	        0.0000026841         0.0000006360        -0.2200302446
C	       -0.0000023408         0.0000000402        -1.4243951399
H	       -0.0000039952        -0.0000012972        -2.4880134769
C	       -0.0000033960         0.0000000000         1.2425847736
H	        0.9916338986         0.2601992926         1.6323041616
H	       -0.2704868842        -0.9888840827         1.6322971256
H	       -0.7211607094         0.7286858010         1.6322999265
$end
$rem
jobtype sp
method tpss
basis 6-311++g**
thresh 14
scf_convergence 9
scf_algorithm rca_diis
max_scf_cycles 200
gui 2
set_iter 30
RPA False
mem_total 100000
mem_static 2000
n_frozen_virtual 0
mom_start False
skip_scfman False
scf_guess_mix False
symmetry False
sym_ignore True
sym_tol 5
dft_d d3
xc_smart_grid True
xc_grid 000099000590
$end

--------------------------------------------------------------

             Standard Nuclear Orientation (Angstroms)
    I     Atom           X                Y                Z
 ----------------------------------------------------------------
    1      C       0.0000026841     0.0000006360    -0.2200302446
    2      C      -0.0000023408     0.0000000402    -1.4243951399
    3      H      -0.0000039952    -0.0000012972    -2.4880134769
    4      C      -0.0000033960     0.0000000000     1.2425847736
    5      H       0.9916338986     0.2601992926     1.6323041616
    6      H      -0.2704868842    -0.9888840827     1.6322971256
    7      H      -0.7211607094     0.7286858010     1.6322999265
 ----------------------------------------------------------------

   14    -116.7087574744      9.17E-10 Convergence criterion met
 Total energy in the final basis set = -116.70875747

                    Orbital Energies (a.u.)
 --------------------------------------------------------------

 Alpha MOs
 -- Occupied --
-10.0124  -9.9856  -9.9721  -0.7260  -0.6511  -0.4880  -0.4135  -0.3957
 -0.3957  -0.2403  -0.2403

          Ground-State Mulliken Net Atomic Charges

     Atom                 Charge (a.u.)
  ----------------------------------------
      1 C                     1.978578
      2 C                    -2.186233
      3 H                     0.117715
      4 C                    -0.452109
      5 H                     0.180683
      6 H                     0.180683
      7 H                     0.180684
  ----------------------------------------
  Sum of atomic charges =     0.000000

                    Cartesian Multipole Moments
 -----------------------------------------------------------------
    Charge (ESU x 10^10)
                 0.0000
    Dipole Moment (Debye)
         X      -0.0000      Y      -0.0000      Z       0.8486
       Tot       0.8486
    Quadrupole Moments (Debye-Ang)
        XX     -19.7457     XY       0.0000     YY     -19.7457
        XZ       0.0000     YZ       0.0000     ZZ     -13.9999

 Total job time:  4.37s(wall), 85.96s(cpu)
        *  Thank you very much for using Q-Chem.  Have a nice day.  *
