 Q-Chem 5.4, Q-Chem, Inc., Pleasanton, CA (2021)
 Q-Chem 5.4.0 for Intel X86 EM64T Linux

User input:
--------------------------------------------------------------
$molecule
0 1
C	        0.0000025856         0.0000006257        -0.1963349123
C	       -0.0000024095         0.0000000320        -1.4414220362
H	       -0.0000040413        -0.0000013357        -2.5183691889
C	       -0.0000033960         0.0000000000         1.2425847736
H	        0.9916338986         0.2601992926         1.6323041616
H	       -0.2704868842        -0.9888840827         1.6322971256
H	       -0.7211607094         0.7286858010         1.6322999265
$end
$rem
jobtype sp
method tpss
basis 6-311++g**
thresh 14
scf_convergence 9
scf_algorithm rca_diis
max_scf_cycles 200
gui 2
set_iter 30
RPA False
mem_total 100000
mem_static 2000
n_frozen_virtual 0
mom_start False
skip_scfman False
scf_guess_mix False
symmetry False
sym_ignore True
sym_tol 5
dft_d d3
xc_smart_grid True
xc_grid 000099000590
$end

--------------------------------------------------------------

             Standard Nuclear Orientation (Angstroms)
    I     Atom           X                Y                Z
 ----------------------------------------------------------------
    1      C       0.0000025856     0.0000006257    -0.1963349123
    2      C      -0.0000024095     0.0000000320    -1.4414220362
    3      H      -0.0000040413    -0.0000013357    -2.5183691889
    4      C      -0.0000033960     0.0000000000     1.2425847736
    5      H       0.9916338986     0.2601992926     1.6323041616
    6      H      -0.2704868842    -0.9888840827     1.6322971256
    7      H      -0.7211607094     0.7286858010     1.6322999265
 ----------------------------------------------------------------

   15    -116.7062601789      4.64E-10 Convergence criterion met
 Total energy in the final basis set = -116.70626018

                    Orbital Energies (a.u.)
 --------------------------------------------------------------

 Alpha MOs
 -- Occupied --
-10.0126  -9.9946  -9.9830  -0.7291  -0.6462  -0.4884  -0.4161  -0.3987
 -0.3987  -0.2344  -0.2344

          Ground-State Mulliken Net Atomic Charges

     Atom                 Charge (a.u.)
  ----------------------------------------
      1 C                     1.750780
      2 C                    -1.984460
      3 H                     0.136929
      4 C                    -0.449379
      5 H                     0.182043
      6 H                     0.182043
      7 H                     0.182044
  ----------------------------------------
  Sum of atomic charges =     0.000000

                    Cartesian Multipole Moments
 -----------------------------------------------------------------
    Charge (ESU x 10^10)
                 0.0000
    Dipole Moment (Debye)
         X      -0.0000      Y      -0.0000      Z       0.9054
       Tot       0.9054
    Quadrupole Moments (Debye-Ang)
        XX     -19.9015     XY       0.0000     YY     -19.9015
        XZ       0.0000     YZ       0.0000     ZZ     -13.9034

 Total job time:  4.71s(wall), 92.57s(cpu)
        *  Thank you very much for using Q-Chem.  Have a nice day.  *
